
:LABEL1: Calculations in /home/cmueller/wien/FZU/src/FeRh/FFM/5000k
:LABEL2: on cv036 at Tue Mar 11 05:27:56 PM CET 2025
:LABEL3: using WIEN2k_19.1 (Release 25/6/2019) in /home/cmueller/WIENROOT
:LABEL4: using the command: run_lapw
 Flat Integration
 New Mode for Coulomb Integral
 Consistent 3/8+Simpson combinations
 Extension of core to zero
 LDM version in phi
 Fifth-order quadrature in outwin


            ---------
:ITE001:  1. ITERATION
            ---------

:NATO :    3 INDEPENDENT AND    4 TOTAL ATOMS IN UNITCELL
       SUBSTANCE: FeRh                                                        

       LATTICE                      = F   
:POT  : POTENTIAL OPTION EX_PBE EC_PBE VX_PBE VC_PBE
:LAT  : LATTICE CONSTANTS= 11.27222 11.27222 11.27222    1.571    1.571    1.571
:VOL  : UNIT CELL VOLUME =     358.07036
       MODE OF CALCULATION IS       = RELA
       NON-SPINPOLARIZED CALCULATION
:IFFT  : FFT-parameters:   90   90   90 Factor: 2.00


   CONVERGENCE PARAMETER FOR PSEUDOCHARGE: NCON=  9
   MAXIMAL VALUE OF RMT(JATOM)*ABSK(NKK) : RK  =29.05063


:VKCOUL :  VK-COUL convergence: 0.126E-05
       ATOMNUMBER=  1 Fe1        VCOUL-ZERO =  0.65836E+00
       ATOMNUMBER=  2 Fe2        VCOUL-ZERO =  0.65836E+00
       ATOMNUMBER=  3 Rh1        VCOUL-ZERO =  0.62973E+00
:FIT001: LUSE= 13 SIGMA OF V-XC FIT FOR ATOM  1  0.5273943E-02
:FIT001: LUSE= 13 SIGMA OF V-XC FIT FOR ATOM  1  0.5273943E-02
:FIT002: LUSE= 13 SIGMA OF V-XC FIT FOR ATOM  2  0.5273943E-02
:FIT002: LUSE= 13 SIGMA OF V-XC FIT FOR ATOM  2  0.5273943E-02
:FIT003: LUSE= 13 SIGMA OF V-XC FIT FOR ATOM  3  0.1324738E-02
:FIT003: LUSE= 13 SIGMA OF V-XC FIT FOR ATOM  3  0.1324738E-02
:DEN  : DENSITY INTEGRAL  =         -9889.77809320   (Ry)
       ELS_POTENTIAL_AT Z=0 and Z=0.5:  -0.23886  -0.23886
       ELS_POTENTIAL_AT Y=0 and Y=0.5:   0.00000   0.00000
:VZERO:v0,v0c,v0x  -0.98015  -0.23886  -0.74129 v5,v5c,v5x  -0.98015  -0.23886  -0.74129
:VZERY:v0,v0c,v0x  -0.85926   0.00000  -0.85926 v5,v5c,v5x  -0.85926   0.00000  -0.85926
:VZERX:v0,v0c,v0x  -0.85926   0.00000  -0.85926 v5,v5c,v5x  -0.85926   0.00000  -0.85926
:LMAX-WF:   10   Non-Spherical LMAX:   4

          ATOMIC SPHERE DEPENDENT PARAMETERS FOR ATOM  Fe1       
:e__0001: OVERALL ENERGY PARAMETER IS    0.3000
          OVERALL BASIS SET ON ATOM IS LAPW
:E1_0001: E( 1)=    0.3000
             APW+lo
:E1_0001: E( 1)=   -3.0753   E(BOTTOM)=   -3.109   E(TOP)=   -3.042  1  2   186
             LOCAL ORBITAL
:E2_0001: E( 2)=    0.7000   E(BOTTOM)=    0.450   E(TOP)=    0.950  0  1   138
             APW+lo
:E0_0001: E( 0)=    0.3000
             APW+lo

          ATOMIC SPHERE DEPENDENT PARAMETERS FOR ATOM  Fe2       
:e__0002: OVERALL ENERGY PARAMETER IS    0.3000
          OVERALL BASIS SET ON ATOM IS LAPW
:E1_0002: E( 1)=    0.3000
             APW+lo
:E1_0002: E( 1)=   -3.0753   E(BOTTOM)=   -3.109   E(TOP)=   -3.042  1  2   186
             LOCAL ORBITAL
:E2_0002: E( 2)=    0.7000   E(BOTTOM)=    0.450   E(TOP)=    0.950  0  1   138
             APW+lo
:E0_0002: E( 0)=    0.3000
             APW+lo

          ATOMIC SPHERE DEPENDENT PARAMETERS FOR ATOM  Rh1       
:e__0003: OVERALL ENERGY PARAMETER IS    0.3000
          OVERALL BASIS SET ON ATOM IS LAPW
:E1_0003: E( 1)=    0.3000
             APW+lo
:E1_0003: E( 1)=   -2.5776   E(BOTTOM)=   -2.678   E(TOP)=   -2.478  2  3   175
             LOCAL ORBITAL
:E2_0003: E( 2)=    0.3000   E(BOTTOM)=    0.218   E(TOP)= -200.000  1 -1    94
             APW+lo
:E0_0003: E( 0)=    0.3000
             APW+lo

       K=   0.00000   0.00000   0.00000            1
:RKM  : MATRIX SIZE   185LOs:  48  RKM= 6.64  WEIGHT= 1.00  PGR:    
       EIGENVALUES ARE:
:EIG00001:      -3.0692391   -3.0692391   -3.0692391   -3.0672932   -3.0672932
:EIG00006:      -3.0672932   -2.5604539   -2.5604539   -2.5604539   -2.5525808
:EIG00011:      -2.5525808   -2.5525808    0.1348649    0.4049680    0.4049680
:EIG00016:       0.4721518    0.4721518    0.4721518    0.6178376    0.6178376
:EIG00021:       0.6178376    0.6432026    0.6432026    0.6432026    0.7910283
:EIG00026:       0.7910283    0.8158963    0.8158963    0.8314523    0.8314523
:EIG00031:       0.8841906    0.8841906    0.8841906    1.3267377    1.3964005
:EIG00036:       1.3964005    1.3964005    1.3971498    1.3971498    1.3971498
:EIG00041:       1.5207242    1.5207242    1.5207242    1.5592513
       ********************************************************

:KPT   :      NUMBER OF K-POINTS:   165
:GAP (global)   :    0.0    Ry =     0.0   eV (metal)
         Bandranges (emin - emax) and occupancy:
:BAN00022:  22    0.567531    0.695069  2.00000000
:BAN00023:  23    0.568949    0.723233  2.00000000
:BAN00024:  24    0.575920    0.727638  2.00000000
:BAN00025:  25    0.700514    0.791028  2.00000000
:BAN00026:  26    0.726355    0.803352  2.00000000
:BAN00027:  27    0.736803    0.815896  1.93829328
:BAN00028:  28    0.758589    0.815896  1.88940644
:BAN00029:  29    0.777749    0.840150  1.55205082
:BAN00030:  30    0.788632    0.848945  0.61116586
:BAN00031:  31    0.807057    0.884191  0.00908890
:BAN00032:  32    0.819329    0.884191 -0.00000530
:BAN00033:  33    0.828366    0.901625  0.00000000
:BAN00034:  34    0.863508    1.330353  0.00000000
:BAN00035:  35    0.905613    1.396401  0.00000000
:BAN00036:  36    0.908121    1.396401  0.00000000
:BAN00037:  37    1.340618    1.559806  0.00000000
        Energy to separate low and high energystates:    0.08486


:NOE  : NUMBER OF ELECTRONS          =   58.000

:FER  : F E R M I - ENERGY(TETRAH.M.)=   0.8085916873
:GMA  : POTENTIAL AND CHARGE CUT-OFF  12.00 Ry**.5

:POS001: ATOM    1 X,Y,Z = 0.00000 0.00000 0.00000  MULT= 1  ZZ= 26.000  Fe1       

       LMMAX  5
       LM=   0 0  4 0  4 4  6 0  6 4

:CHA001: TOTAL VALENCE CHARGE INSIDE SPHERE   1 =  13.4000    (RMT=  2.4300 )
:PCS001: PARTIAL CHARGES SPHERE =  1 S,P,D,F,      D-EG,D-T2G 
:QTL001: 0.4809 6.5450 6.2998 0.0555 0.0000 0.0000 0.0000 2.4786 3.8212 0.0000 0.0000 0.0000
        Q-s-low E-s-low   Q-p-low E-p-low   Q-d-low E-d-low   Q-f-low E-f-low
:EPL001:  0.0011 -2.5659    5.9898 -3.0680    0.0027 -2.5615    0.0011 -2.5620
        Q-s-hi  E-s-hi    Q-p-hi  E-p-hi    Q-d-hi  E-d-hi    Q-f-hi  E-f-hi 
:EPH001:  0.4798  0.3806    0.5552  0.5413    6.2971  0.6741    0.0543  0.6242

:POS002: ATOM    2 X,Y,Z = 0.50000 0.00000 0.00000  MULT= 1  ZZ= 26.000  Fe2       

       LMMAX  5
       LM=   0 0  4 0  4 4  6 0  6 4

:CHA002: TOTAL VALENCE CHARGE INSIDE SPHERE   2 =  13.4000    (RMT=  2.4300 )
:PCS002: PARTIAL CHARGES SPHERE =  2 S,P,D,F,      D-EG,D-T2G 
:QTL002: 0.4809 6.5450 6.2998 0.0555 0.0000 0.0000 0.0000 2.4786 3.8212 0.0000 0.0000 0.0000
        Q-s-low E-s-low   Q-p-low E-p-low   Q-d-low E-d-low   Q-f-low E-f-low
:EPL002:  0.0011 -2.5659    5.9898 -3.0680    0.0027 -2.5615    0.0011 -2.5620
        Q-s-hi  E-s-hi    Q-p-hi  E-p-hi    Q-d-hi  E-d-hi    Q-f-hi  E-f-hi 
:EPH002:  0.4798  0.3806    0.5552  0.5413    6.2971  0.6741    0.0543  0.6242

:POS003: ATOM    3 X,Y,Z = 0.25000 0.25000 0.25000  MULT= 2  ZZ= 45.000  Rh1       

       LMMAX  6
       LM=   0 0  4 0  4 4  6 0  6 4 -3 2

:CHA003: TOTAL VALENCE CHARGE INSIDE SPHERE   3 =  13.0725    (RMT=  2.4300 )
:PCS003: PARTIAL CHARGES SPHERE =  3 S,P,D,F,      D-EG,D-T2G 
:QTL003: 0.3765 6.3588 6.2762 0.0485 0.0000 0.0000 0.0000 2.3678 3.9084 0.0000 0.0000 0.0000
        Q-s-low E-s-low   Q-p-low E-p-low   Q-d-low E-d-low   Q-f-low E-f-low
:EPL003:  0.0003 -2.9898    5.9572 -2.5571    0.0008 -3.0011    0.0004 -2.9981
        Q-s-hi  E-s-hi    Q-p-hi  E-p-hi    Q-d-hi  E-d-hi    Q-f-hi  E-f-hi 
:EPH003:  0.3762  0.3990    0.4016  0.5650    6.2754  0.5915    0.0481  0.6597

:CHA  : TOTAL VALENCE CHARGE INSIDE UNIT CELL =      58.000000

:SUM  : SUM OF EIGENVALUES =         -47.127947965



   QTL-B VALUE .EQ.    2.39422   in Band of energy    0.81453   ATOM=    3   L=  2
    Most likely no ghostbands, but adjust Energy-parameters for this ATOM and L


:WARN : QTL-B value eq.   2.39 in Band of energy   0.81453  ATOM=    3  L=  2
:WARN : You should change the E-parameter for this atom and L-value in case.in1 (or try the -in1new switch)

        1.ATOM      Fe1                   5 CORE STATES
:1S 001: 1S                -512.917891279 Ry
:2S 001: 2S                 -58.826866001 Ry
:2PP001: 2P*                -50.530155331 Ry
:2P 001: 2P                 -49.612674471 Ry
:3S 001: 3S                  -5.554477635 Ry

        2.ATOM      Fe2                   5 CORE STATES
:1S 002: 1S                -512.917891279 Ry
:2S 002: 2S                 -58.826866001 Ry
:2PP002: 2P*                -50.530155331 Ry
:2P 002: 2P                 -49.612674471 Ry
:3S 002: 3S                  -5.554477635 Ry

        3.ATOM      Rh1                  10 CORE STATES
:1S 003: 1S               -1691.217358224 Ry
:2S 003: 2S                -244.109674305 Ry
:2PP003: 2P*               -225.919343956 Ry
:2P 003: 2P                -215.290136273 Ry
:3S 003: 3S                 -42.651986868 Ry
:3PP003: 3P*                -35.533746793 Ry
:3P 003: 3P                 -33.705449364 Ry
:3DD003: 3D*                -21.106761817 Ry
:3D 003: 3D                 -20.746244980 Ry
:4S 003: 4S                  -4.904518397 Ry
:CINT001 Core Integral Atom   1   11.999197
:CINT002 Core Integral Atom   2   11.999197
:CINT003 Core Integral Atom   3   29.997225

       DENSITY AT NUCLEUS
        JATOM        VALENCE       SEMI-CORE          CORE           TOTAL
:RTO001:   1        7.119374        0.000000    15301.515563    15308.634937
:RTO002:   2        7.119374        0.000000    15301.515563    15308.634937
:RTO003:   3       24.635022        0.000000   155310.014376   155334.649399
     
       CHARGES OF NEW CHARGE DENSITY
:NTO   : INTERSTITIAL CHARGE =     5.054963
:NPC   : PW Pseudocharge     =    11.598837
:NTO001: CHARGE SPHERE  1    =    25.399184
:NTO002: CHARGE SPHERE  2    =    25.399184
:NTO003: CHARGE SPHERE  3    =    43.069725

:NEC01: NUCLEAR AND ELECTRONIC CHARGE    142.00000   141.99278
     
       CHARGES OF OLD CHARGE DENSITY
:OTO   : INTERSTITIAL CHARGE =     3.805005
:OPC   : PW Pseudocharge     =    18.875488
:OTO001: CHARGE SPHERE  1    =    25.256897
:OTO002: CHARGE SPHERE  2    =    25.256897
:OTO003: CHARGE SPHERE  3    =    43.842573

:NEC02: NUCLEAR AND ELECTRONIC CHARGE    142.00000   142.00395
     
       CONVERGENCE TEST
:DTO001: DIFFERENCE IN SPHERE  1 =  0.4739361
:DTO002: DIFFERENCE IN SPHERE  2 =  0.4739361
:DTO003: DIFFERENCE IN SPHERE  3 =  0.9074019

:DIS  :  CHARGE DISTANCE       ( 0.9074019 for atom    3 spin 1)      0.6906690
 PW Mixed is           49
 
******************************************************
* MULTISECANT MIXING VER9 RELEASE 10.4.0              *
* Standard Mode with controls                        *
* Fixed density scale                                *
* Regularization       1.000E-04                     *
* Trust Upper Limit    5.000E+00                     *
* Max Number of Memory Steps    8                    *
******************************************************
 
:PWTMP   1.1765E+02  4.5917E+02  3.5807E+02
:PLANE:  PW TOTAL      2.9797 DISTAN   1.87E+00  6.26E+01 %
:CHARG:  CLM/ATOM    299.8813 DISTAN   4.88E-01  1.63E-01 %
 
Step History
        DMIX         DMIXT        Red     Pred      Trust     Lambda    MagRel    MagAbs     Beta
  1   3.5000E-02   3.5000E-02 -1.00E+00  1.00E+00 -1.00E+01  1.00E+00  3.50E-02  3.50E-02  1.00E+00
:INFO :  Note, Pratt in use
:TRUST:  Step 3.75E-02  Charge 7.50E-02 (e) CTO  2.50E-01 (e) PW  3.50E-01 (e)
:DIRM :  MEMORY  0/ 8 SCALE   1.000
Performing Pseudo Compensation
Final Pseudo Compensation Rescaling     9.98220E-01
:MIX  :   PRATT  REGULARIZATION:  1.00E-04 GREED: 0.02500                  
     
       CHARGES OF MIXED CHARGE DENSITY
:CTO   : INTERSTITIAL CHARGE =     3.832588
:CPC   : PW Pseudocharge     =    13.599164
:CTO001: CHARGE SPHERE  1    =    25.260454
:CTO002: CHARGE SPHERE  2    =    25.260454
:CTO003: CHARGE SPHERE  3    =    43.823252

:NEC03: NUCLEAR AND ELECTRONIC CHARGE    142.00000   142.00000

PW CHANGE     H    K    L      Current       Change    Residue
:PTO001:      0    0    0  4.86824741E-02 -1.459E-02 -1.670E-02
:PTO003:      0    0   -2 -2.51405468E-02  2.289E-02  3.715E-02
:PTO004:      0   -2   -2  3.53595891E-02 -1.011E-01 -1.407E-01
:PTO006:     -2   -2   -2  1.33346377E-03  1.508E-02  1.719E-02
:PTO007:      0    0   -4 -1.19238193E-02 -2.653E-02 -2.714E-02
:PTO009:      0   -2   -4  1.81062844E-02  1.934E-02  1.128E-02
:PTO010:     -2   -2   -4 -4.40145319E-02 -4.908E-02 -2.471E-02
:PTO013:      0   -4   -4 -1.18265811E-02 -8.944E-03  1.840E-03
:PTO015:     -2   -4   -4  5.94441789E-03 -2.602E-04 -5.035E-03
:PTO016:      0    0   -6  1.49398285E-03 -5.716E-05 -9.437E-04
:PTO017:      0   -2   -6 -8.07758020E-03 -2.738E-03  5.792E-03
:PTO019:     -2   -2   -6  1.47263154E-03 -2.434E-03 -3.589E-03

:ENE  : *WARNING** TOTAL ENERGY IN Ry =       -24232.24523148

 Flat Integration
 New Mode for Coulomb Integral
 Consistent 3/8+Simpson combinations
 Extension of core to zero
 LDM version in phi
 Fifth-order quadrature in outwin


            ---------
:ITE002:  2. ITERATION
            ---------

:NATO :    3 INDEPENDENT AND    4 TOTAL ATOMS IN UNITCELL
       SUBSTANCE: FeRh                                                        

       LATTICE                      = F   
:POT  : POTENTIAL OPTION EX_PBE EC_PBE VX_PBE VC_PBE
:LAT  : LATTICE CONSTANTS= 11.27222 11.27222 11.27222    1.571    1.571    1.571
:VOL  : UNIT CELL VOLUME =     358.07036
       MODE OF CALCULATION IS       = RELA
       NON-SPINPOLARIZED CALCULATION
:IFFT  : FFT-parameters:   90   90   90 Factor: 2.00


   CONVERGENCE PARAMETER FOR PSEUDOCHARGE: NCON=  9
   MAXIMAL VALUE OF RMT(JATOM)*ABSK(NKK) : RK  =29.05063


:VKCOUL :  VK-COUL convergence: 0.476E-07
       ATOMNUMBER=  1 Fe1        VCOUL-ZERO =  0.63021E+00
       ATOMNUMBER=  2 Fe2        VCOUL-ZERO =  0.63021E+00
       ATOMNUMBER=  3 Rh1        VCOUL-ZERO =  0.59942E+00
:FIT001: LUSE= 13 SIGMA OF V-XC FIT FOR ATOM  1  0.5081429E-02
:FIT001: LUSE= 13 SIGMA OF V-XC FIT FOR ATOM  1  0.5081429E-02
:FIT002: LUSE= 13 SIGMA OF V-XC FIT FOR ATOM  2  0.5081429E-02
:FIT002: LUSE= 13 SIGMA OF V-XC FIT FOR ATOM  2  0.5081429E-02
:FIT003: LUSE= 13 SIGMA OF V-XC FIT FOR ATOM  3  0.1207600E-02
:FIT003: LUSE= 13 SIGMA OF V-XC FIT FOR ATOM  3  0.1207600E-02
:DEN  : DENSITY INTEGRAL  =         -9883.02529070   (Ry)
       ELS_POTENTIAL_AT Z=0 and Z=0.5:  -0.21753  -0.21753
       ELS_POTENTIAL_AT Y=0 and Y=0.5:   0.00000   0.00000
:VZERO:v0,v0c,v0x  -0.85123  -0.21753  -0.63370 v5,v5c,v5x  -0.85123  -0.21753  -0.63370
:VZERY:v0,v0c,v0x  -0.81403   0.00000  -0.81403 v5,v5c,v5x  -0.81403   0.00000  -0.81403
:VZERX:v0,v0c,v0x  -0.81403   0.00000  -0.81403 v5,v5c,v5x  -0.81403   0.00000  -0.81403
:LMAX-WF:   10   Non-Spherical LMAX:   4

          ATOMIC SPHERE DEPENDENT PARAMETERS FOR ATOM  Fe1       
:e__0001: OVERALL ENERGY PARAMETER IS    0.5000
          OVERALL BASIS SET ON ATOM IS LAPW
:E1_0001: E( 1)=    0.5000
             APW+lo
:E1_0001: E( 1)=   -3.1105   E(BOTTOM)=   -3.144   E(TOP)=   -3.077  1  2   181
             LOCAL ORBITAL
:E2_0001: E( 2)=    0.6662   E(BOTTOM)=    0.418   E(TOP)=    0.915  0  1   128
             APW+lo
:E0_0001: E( 0)=    0.5000
             APW+lo

          ATOMIC SPHERE DEPENDENT PARAMETERS FOR ATOM  Fe2       
:e__0002: OVERALL ENERGY PARAMETER IS    0.5000
          OVERALL BASIS SET ON ATOM IS LAPW
:E1_0002: E( 1)=    0.5000
             APW+lo
:E1_0002: E( 1)=   -3.1105   E(BOTTOM)=   -3.144   E(TOP)=   -3.077  1  2   181
             LOCAL ORBITAL
:E2_0002: E( 2)=    0.6662   E(BOTTOM)=    0.418   E(TOP)=    0.915  0  1   128
             APW+lo
:E0_0002: E( 0)=    0.5000
             APW+lo

          ATOMIC SPHERE DEPENDENT PARAMETERS FOR ATOM  Rh1       
:e__0003: OVERALL ENERGY PARAMETER IS    0.5000
          OVERALL BASIS SET ON ATOM IS LAPW
:E1_0003: E( 1)=    0.5000
             APW+lo
:E1_0003: E( 1)=   -2.6250   E(BOTTOM)=   -2.724   E(TOP)=   -2.526  2  3   174
             LOCAL ORBITAL
:E2_0003: E( 2)=    0.5000   E(BOTTOM)=    0.178   E(TOP)= -200.000  1 -1    94
             APW+lo
:E0_0003: E( 0)=    0.5000
             APW+lo

       K=   0.00000   0.00000   0.00000            1
:RKM  : MATRIX SIZE   185LOs:  48  RKM= 6.64  WEIGHT= 1.00  PGR:    
       EIGENVALUES ARE:
:EIG00001:      -3.1044366   -3.1044366   -3.1044366   -3.1025611   -3.1025611
:EIG00006:      -3.1025611   -2.6079570   -2.6079570   -2.6079570   -2.6001872
:EIG00011:      -2.6001872   -2.6001872    0.1036315    0.3685876    0.3685876
:EIG00016:       0.4345156    0.4345156    0.4345156    0.5846538    0.5846538
:EIG00021:       0.5846538    0.6045626    0.6045626    0.6045626    0.7537749
:EIG00026:       0.7537749    0.7816943    0.7816943    0.7860885    0.7860885
:EIG00031:       0.8446594    0.8446594    0.8446594    1.2952581    1.3633116
:EIG00036:       1.3633116    1.3633116    1.3641493    1.3641493    1.3641493
:EIG00041:       1.4740114    1.4740114    1.4740114    1.5233933    2.0349724
:EIG00046:       2.0349724    2.1066957    2.1854937    2.1854937    2.1854937
 
       ********************************************************

:KPT   :      NUMBER OF K-POINTS:   165
:GAP (global)   :    0.0    Ry =     0.0   eV (metal)
         Bandranges (emin - emax) and occupancy:
:BAN00022:  22    0.529828    0.660956  2.00000000
:BAN00023:  23    0.530953    0.683834  2.00000000
:BAN00024:  24    0.539119    0.693256  2.00000000
:BAN00025:  25    0.666963    0.753775  2.00000000
:BAN00026:  26    0.691950    0.765874  2.00000000
:BAN00027:  27    0.701997    0.781694  1.93365030
:BAN00028:  28    0.722170    0.781694  1.89652817
:BAN00029:  29    0.741091    0.802284  1.55427109
:BAN00030:  30    0.752234    0.812679  0.60530649
:BAN00031:  31    0.769341    0.844659  0.01024798
:BAN00032:  32    0.777054    0.844659 -0.00000403
:BAN00033:  33    0.790351    0.862130  0.00000000
:BAN00034:  34    0.825603    1.298035  0.00000000
:BAN00035:  35    0.862621    1.363312  0.00000000
:BAN00036:  36    0.866744    1.363312  0.00000000
:BAN00037:  37    1.306058    1.522037  0.00000000
        Energy to separate low and high energystates:    0.05363


:NOE  : NUMBER OF ELECTRONS          =   58.000

:FER  : F E R M I - ENERGY(TETRAH.M.)=   0.7710943620
:GMA  : POTENTIAL AND CHARGE CUT-OFF  12.00 Ry**.5

:POS001: ATOM    1 X,Y,Z = 0.00000 0.00000 0.00000  MULT= 1  ZZ= 26.000  Fe1       

       LMMAX  5
       LM=   0 0  4 0  4 4  6 0  6 4

:CHA001: TOTAL VALENCE CHARGE INSIDE SPHERE   1 =  13.3086    (RMT=  2.4300 )
:PCS001: PARTIAL CHARGES SPHERE =  1 S,P,D,F,      D-EG,D-T2G 
:QTL001: 0.4773 6.5349 6.2229 0.0547 0.0000 0.0000 0.0000 2.4324 3.7905 0.0000 0.0000 0.0000
        Q-s-low E-s-low   Q-p-low E-p-low   Q-d-low E-d-low   Q-f-low E-f-low
:EPL001:  0.0011 -2.6133    5.9898 -3.1032    0.0027 -2.6089    0.0011 -2.6094
        Q-s-hi  E-s-hi    Q-p-hi  E-p-hi    Q-d-hi  E-d-hi    Q-f-hi  E-f-hi 
:EPH001:  0.4762  0.3473    0.5451  0.5050    6.2202  0.6393    0.0536  0.5847

:POS002: ATOM    2 X,Y,Z = 0.50000 0.00000 0.00000  MULT= 1  ZZ= 26.000  Fe2       

       LMMAX  5
       LM=   0 0  4 0  4 4  6 0  6 4

:CHA002: TOTAL VALENCE CHARGE INSIDE SPHERE   2 =  13.3086    (RMT=  2.4300 )
:PCS002: PARTIAL CHARGES SPHERE =  2 S,P,D,F,      D-EG,D-T2G 
:QTL002: 0.4773 6.5349 6.2229 0.0547 0.0000 0.0000 0.0000 2.4324 3.7905 0.0000 0.0000 0.0000
        Q-s-low E-s-low   Q-p-low E-p-low   Q-d-low E-d-low   Q-f-low E-f-low
:EPL002:  0.0011 -2.6133    5.9898 -3.1032    0.0027 -2.6089    0.0011 -2.6094
        Q-s-hi  E-s-hi    Q-p-hi  E-p-hi    Q-d-hi  E-d-hi    Q-f-hi  E-f-hi 
:EPH002:  0.4762  0.3473    0.5451  0.5050    6.2202  0.6393    0.0536  0.5847

:POS003: ATOM    3 X,Y,Z = 0.25000 0.25000 0.25000  MULT= 2  ZZ= 45.000  Rh1       

       LMMAX  6
       LM=   0 0  4 0  4 4  6 0  6 4 -3 2

:CHA003: TOTAL VALENCE CHARGE INSIDE SPHERE   3 =  13.1891    (RMT=  2.4300 )
:PCS003: PARTIAL CHARGES SPHERE =  3 S,P,D,F,      D-EG,D-T2G 
:QTL003: 0.3765 6.3558 6.3968 0.0478 0.0000 0.0000 0.0000 2.4337 3.9630 0.0000 0.0000 0.0000
        Q-s-low E-s-low   Q-p-low E-p-low   Q-d-low E-d-low   Q-f-low E-f-low
:EPL003:  0.0003 -3.0285    5.9578 -2.6047    0.0008 -3.0391    0.0004 -3.0365
        Q-s-hi  E-s-hi    Q-p-hi  E-p-hi    Q-d-hi  E-d-hi    Q-f-hi  E-f-hi 
:EPH003:  0.3761  0.3664    0.3980  0.5313    6.3960  0.5532    0.0474  0.6248

:CHA  : TOTAL VALENCE CHARGE INSIDE UNIT CELL =      58.000000

:SUM  : SUM OF EIGENVALUES =         -49.359068406


        1.ATOM      Fe1                   5 CORE STATES
:1S 001: 1S                -512.959404566 Ry
:2S 001: 2S                 -58.867855229 Ry
:2PP001: 2P*                -50.571296193 Ry
:2P 001: 2P                 -49.653799937 Ry
:3S 001: 3S                  -5.590143911 Ry

        2.ATOM      Fe2                   5 CORE STATES
:1S 002: 1S                -512.959404568 Ry
:2S 002: 2S                 -58.867855231 Ry
:2PP002: 2P*                -50.571296195 Ry
:2P 002: 2P                 -49.653799939 Ry
:3S 002: 3S                  -5.590143913 Ry

        3.ATOM      Rh1                  10 CORE STATES
:1S 003: 1S               -1691.280270939 Ry
:2S 003: 2S                -244.171622904 Ry
:2PP003: 2P*               -225.981576241 Ry
:2P 003: 2P                -215.352305659 Ry
:3S 003: 3S                 -42.709668837 Ry
:3PP003: 3P*                -35.591546008 Ry
:3P 003: 3P                 -33.763093083 Ry
:3DD003: 3D*                -21.164868585 Ry
:3D 003: 3D                 -20.804297619 Ry
:4S 003: 4S                  -4.953690180 Ry
:CINT001 Core Integral Atom   1   11.999200
:CINT002 Core Integral Atom   2   11.999200
:CINT003 Core Integral Atom   3   29.997254

       DENSITY AT NUCLEUS
        JATOM        VALENCE       SEMI-CORE          CORE           TOTAL
:RTO001:   1        7.048872        0.000000    15301.632098    15308.680970
:RTO002:   2        7.048872        0.000000    15301.632098    15308.680970
:RTO003:   3       24.613267        0.000000   155310.854041   155335.467308
     
       CHARGES OF NEW CHARGE DENSITY
:NTO   : INTERSTITIAL CHARGE =     5.004491
:NPC   : PW Pseudocharge     =    11.543957
:NTO001: CHARGE SPHERE  1    =    25.307810
:NTO002: CHARGE SPHERE  2    =    25.307810
:NTO003: CHARGE SPHERE  3    =    43.186367

:NEC01: NUCLEAR AND ELECTRONIC CHARGE    142.00000   141.99285
     
       CHARGES OF OLD CHARGE DENSITY
:OTO   : INTERSTITIAL CHARGE =     3.832588
:OPC   : PW Pseudocharge     =    13.599164
:OTO001: CHARGE SPHERE  1    =    25.260454
:OTO002: CHARGE SPHERE  2    =    25.260454
:OTO003: CHARGE SPHERE  3    =    43.823252

:NEC02: NUCLEAR AND ELECTRONIC CHARGE    142.00000   142.00000
     
       CONVERGENCE TEST
:DTO001: DIFFERENCE IN SPHERE  1 =  0.5154944
:DTO002: DIFFERENCE IN SPHERE  2 =  0.5154943
:DTO003: DIFFERENCE IN SPHERE  3 =  0.7425792

:DIS  :  CHARGE DISTANCE       ( 0.7425792 for atom    3 spin 1)      0.6290368
 PW Mixed is           49
 
******************************************************
* MULTISECANT MIXING VER9 RELEASE 10.4.0              *
* Slow Mode, cautious                                *
* Fixed density scale                                *
* Regularization       1.000E-04                     *
* Step Trust Radius    0.75000                       *
* Trust Upper Limit    2.000E+00                     *
* Max Number of Memory Steps   12                    *
******************************************************
 
:PWTMP   1.1765E+02  4.5917E+02  3.5807E+02
:PLANE:  PW TOTAL      2.0038 DISTAN   5.53E-01  2.76E+01 %
:CHARG:  CLM/ATOM    299.8792 DISTAN   4.31E-01  1.44E-01 %
 
Step History
        DMIX         DMIXT        Red     Pred      Trust     Lambda    MagRel    MagAbs     Beta
  1   3.5000E-02   3.5000E-02 -1.00E+00  1.00E+00 -1.00E+01  1.00E+00  3.50E-02  3.50E-02  1.00E+00
  2   2.5000E-02   2.5000E-02 -1.00E+00  1.00E+00 -1.00E+01  1.00E+00  2.50E-02  5.93E-02  1.00E+00
:JACOBIANS    4.842E-01   2.082E-03
  
:TRUST:  Step 3.75E-02  Charge 7.50E-02 (e) CTO  2.50E-01 (e) PW  3.50E-01 (e)
:DIRM :  MEMORY  1/12 SCALE   1.000
:MIX  :   PRATT  REGULARIZATION:  1.00E-04 GREED: 0.03746  Expand 1.50  0.0375                
     
       CHARGES OF MIXED CHARGE DENSITY
:CTO   : INTERSTITIAL CHARGE =     3.843245
:CPC   : PW Pseudocharge     =    11.822271
:CTO001: CHARGE SPHERE  1    =    25.261656
:CTO002: CHARGE SPHERE  2    =    25.261656
:CTO003: CHARGE SPHERE  3    =    43.816721

:NEC03: NUCLEAR AND ELECTRONIC CHARGE    142.00000   142.00000

PW CHANGE     H    K    L      Current       Change    Residue
:PTO001:      0    0    0  4.37498261E-02 -4.933E-03 -2.401E-03
:PTO003:      0    0   -2 -1.74020542E-02  7.738E-03  1.375E-02
:PTO004:      0   -2   -2  1.18815560E-03 -3.417E-02 -3.913E-02
:PTO006:     -2   -2   -2  6.43172759E-03  5.098E-03  2.211E-03
:PTO007:      0    0   -4 -2.08930434E-02 -8.969E-03 -5.511E-04
:PTO009:      0   -2   -4  2.46424411E-02  6.536E-03 -7.643E-03
:PTO010:     -2   -2   -4 -6.06060536E-02 -1.659E-02  2.423E-02
:PTO013:      0   -4   -4 -1.48498646E-02 -3.023E-03  1.073E-02
:PTO015:     -2   -4   -4  5.85647931E-03 -8.794E-05 -4.691E-03
:PTO016:      0    0   -6  1.47466125E-03 -1.932E-05 -9.313E-04
:PTO017:      0   -2   -6 -9.00294286E-03 -9.254E-04  8.562E-03
:PTO019:     -2   -2   -6  6.49892679E-04 -8.227E-04 -1.234E-03

:ENE  : ********** TOTAL ENERGY IN Ry =       -24232.21676870

 Flat Integration
 New Mode for Coulomb Integral
 Consistent 3/8+Simpson combinations
 Extension of core to zero
 LDM version in phi
 Fifth-order quadrature in outwin


            ---------
:ITE003:  3. ITERATION
            ---------

:NATO :    3 INDEPENDENT AND    4 TOTAL ATOMS IN UNITCELL
       SUBSTANCE: FeRh                                                        

       LATTICE                      = F   
:POT  : POTENTIAL OPTION EX_PBE EC_PBE VX_PBE VC_PBE
:LAT  : LATTICE CONSTANTS= 11.27222 11.27222 11.27222    1.571    1.571    1.571
:VOL  : UNIT CELL VOLUME =     358.07036
       MODE OF CALCULATION IS       = RELA
       NON-SPINPOLARIZED CALCULATION
:IFFT  : FFT-parameters:   90   90   90 Factor: 2.00


   CONVERGENCE PARAMETER FOR PSEUDOCHARGE: NCON=  9
   MAXIMAL VALUE OF RMT(JATOM)*ABSK(NKK) : RK  =29.05063


:VKCOUL :  VK-COUL convergence: 0.534E-07
       ATOMNUMBER=  1 Fe1        VCOUL-ZERO =  0.62091E+00
       ATOMNUMBER=  2 Fe2        VCOUL-ZERO =  0.62091E+00
       ATOMNUMBER=  3 Rh1        VCOUL-ZERO =  0.58939E+00
:FIT001: LUSE= 13 SIGMA OF V-XC FIT FOR ATOM  1  0.5018080E-02
:FIT001: LUSE= 13 SIGMA OF V-XC FIT FOR ATOM  1  0.5018080E-02
:FIT002: LUSE= 13 SIGMA OF V-XC FIT FOR ATOM  2  0.5018080E-02
:FIT002: LUSE= 13 SIGMA OF V-XC FIT FOR ATOM  2  0.5018080E-02
:FIT003: LUSE= 13 SIGMA OF V-XC FIT FOR ATOM  3  0.1168863E-02
:FIT003: LUSE= 13 SIGMA OF V-XC FIT FOR ATOM  3  0.1168863E-02
:DEN  : DENSITY INTEGRAL  =         -9880.77590532   (Ry)
       ELS_POTENTIAL_AT Z=0 and Z=0.5:  -0.21037  -0.21037
       ELS_POTENTIAL_AT Y=0 and Y=0.5:   0.00000   0.00000
:VZERO:v0,v0c,v0x  -0.74483  -0.21037  -0.53446 v5,v5c,v5x  -0.74483  -0.21037  -0.53446
:VZERY:v0,v0c,v0x  -0.77941   0.00000  -0.77941 v5,v5c,v5x  -0.77941   0.00000  -0.77941
:VZERX:v0,v0c,v0x  -0.77941   0.00000  -0.77941 v5,v5c,v5x  -0.77941   0.00000  -0.77941
:LMAX-WF:   10   Non-Spherical LMAX:   4

          ATOMIC SPHERE DEPENDENT PARAMETERS FOR ATOM  Fe1       
:e__0001: OVERALL ENERGY PARAMETER IS    0.5474
          OVERALL BASIS SET ON ATOM IS LAPW
:E1_0001: E( 1)=    0.5474
             APW+lo
:E1_0001: E( 1)=   -3.1222   E(BOTTOM)=   -3.156   E(TOP)=   -3.089  1  2   181
             LOCAL ORBITAL
:E2_0001: E( 2)=    0.6550   E(BOTTOM)=    0.407   E(TOP)=    0.903  0  1   125
             APW+lo
:E0_0001: E( 0)=    0.5474
             APW+lo

          ATOMIC SPHERE DEPENDENT PARAMETERS FOR ATOM  Fe2       
:e__0002: OVERALL ENERGY PARAMETER IS    0.5474
          OVERALL BASIS SET ON ATOM IS LAPW
:E1_0002: E( 1)=    0.5474
             APW+lo
:E1_0002: E( 1)=   -3.1222   E(BOTTOM)=   -3.156   E(TOP)=   -3.089  1  2   181
             LOCAL ORBITAL
:E2_0002: E( 2)=    0.6550   E(BOTTOM)=    0.407   E(TOP)=    0.903  0  1   125
             APW+lo
:E0_0002: E( 0)=    0.5474
             APW+lo

          ATOMIC SPHERE DEPENDENT PARAMETERS FOR ATOM  Rh1       
:e__0003: OVERALL ENERGY PARAMETER IS    0.5474
          OVERALL BASIS SET ON ATOM IS LAPW
:E1_0003: E( 1)=    0.5474
             APW+lo
:E1_0003: E( 1)=   -2.6409   E(BOTTOM)=   -2.740   E(TOP)=   -2.542  2  3   171
             LOCAL ORBITAL
:E2_0003: E( 2)=    0.5474   E(BOTTOM)=    0.164   E(TOP)= -200.000  1 -1    94
             APW+lo
:E0_0003: E( 0)=    0.5474
             APW+lo

       K=   0.00000   0.00000   0.00000            1
:RKM  : MATRIX SIZE   185LOs:  48  RKM= 6.64  WEIGHT= 1.00  PGR:    
       EIGENVALUES ARE:
:EIG00001:      -3.1161124   -3.1161124   -3.1161124   -3.1142594   -3.1142594
:EIG00006:      -3.1142594   -2.6238041   -2.6238041   -2.6238041   -2.6160692
:EIG00011:      -2.6160692   -2.6160692    0.0933074    0.3565050    0.3565050
:EIG00016:       0.4219862    0.4219862    0.4219862    0.5736546    0.5736546
:EIG00021:       0.5736546    0.5917047    0.5917047    0.5917047    0.7415146
:EIG00026:       0.7415146    0.7703581    0.7703581    0.7713513    0.7713513
:EIG00031:       0.8317747    0.8317747    0.8317747    1.2849403    1.3521124
:EIG00036:       1.3521124    1.3521124    1.3535073    1.3535073    1.3535073
:EIG00041:       1.4601680    1.4601680    1.4601680    1.5114848    2.0201240
:EIG00046:       2.0201240    2.0951092    2.1748152    2.1748152    2.1748152
 
       ********************************************************

:KPT   :      NUMBER OF K-POINTS:   165
:GAP (global)   :    0.0    Ry =     0.0   eV (metal)
         Bandranges (emin - emax) and occupancy:
:BAN00022:  22    0.517274    0.649198  2.00000000
:BAN00023:  23    0.518297    0.672620  2.00000000
:BAN00024:  24    0.526887    0.681879  2.00000000
:BAN00025:  25    0.654889    0.741515  2.00000000
:BAN00026:  26    0.680556    0.753546  2.00000000
:BAN00027:  27    0.690491    0.770358  1.94141924
:BAN00028:  28    0.710153    0.770358  1.90461154
:BAN00029:  29    0.729028    0.789840  1.53993010
:BAN00030:  30    0.740243    0.800685  0.60318973
:BAN00031:  31    0.756851    0.831775  0.01085242
:BAN00032:  32    0.765726    0.831775 -0.00000304
:BAN00033:  33    0.777773    0.849250  0.00000000
:BAN00034:  34    0.813176    1.287491  0.00000000
:BAN00035:  35    0.848743    1.352112  0.00000000
:BAN00036:  36    0.854218    1.352112  0.00000000
:BAN00037:  37    1.294935    1.509012  0.00000000
        Energy to separate low and high energystates:    0.04331


:NOE  : NUMBER OF ELECTRONS          =   58.000

:FER  : F E R M I - ENERGY(TETRAH.M.)=   0.7586950635
:GMA  : POTENTIAL AND CHARGE CUT-OFF  12.00 Ry**.5

:POS001: ATOM    1 X,Y,Z = 0.00000 0.00000 0.00000  MULT= 1  ZZ= 26.000  Fe1       

       LMMAX  5
       LM=   0 0  4 0  4 4  6 0  6 4

:CHA001: TOTAL VALENCE CHARGE INSIDE SPHERE   1 =  13.2819    (RMT=  2.4300 )
:PCS001: PARTIAL CHARGES SPHERE =  1 S,P,D,F,      D-EG,D-T2G 
:QTL001: 0.4760 6.5316 6.2009 0.0545 0.0000 0.0000 0.0000 2.4211 3.7798 0.0000 0.0000 0.0000
        Q-s-low E-s-low   Q-p-low E-p-low   Q-d-low E-d-low   Q-f-low E-f-low
:EPL001:  0.0011 -2.6292    5.9898 -3.1149    0.0027 -2.6248    0.0011 -2.6252
        Q-s-hi  E-s-hi    Q-p-hi  E-p-hi    Q-d-hi  E-d-hi    Q-f-hi  E-f-hi 
:EPH001:  0.4750  0.3363    0.5418  0.4930    6.1982  0.6279    0.0533  0.5717

:POS002: ATOM    2 X,Y,Z = 0.50000 0.00000 0.00000  MULT= 1  ZZ= 26.000  Fe2       

       LMMAX  5
       LM=   0 0  4 0  4 4  6 0  6 4

:CHA002: TOTAL VALENCE CHARGE INSIDE SPHERE   2 =  13.2819    (RMT=  2.4300 )
:PCS002: PARTIAL CHARGES SPHERE =  2 S,P,D,F,      D-EG,D-T2G 
:QTL002: 0.4760 6.5316 6.2009 0.0545 0.0000 0.0000 0.0000 2.4211 3.7798 0.0000 0.0000 0.0000
        Q-s-low E-s-low   Q-p-low E-p-low   Q-d-low E-d-low   Q-f-low E-f-low
:EPL002:  0.0011 -2.6292    5.9898 -3.1149    0.0027 -2.6248    0.0011 -2.6252
        Q-s-hi  E-s-hi    Q-p-hi  E-p-hi    Q-d-hi  E-d-hi    Q-f-hi  E-f-hi 
:EPH002:  0.4750  0.3363    0.5418  0.4930    6.1982  0.6279    0.0533  0.5717

:POS003: ATOM    3 X,Y,Z = 0.25000 0.25000 0.25000  MULT= 2  ZZ= 45.000  Rh1       

       LMMAX  6
       LM=   0 0  4 0  4 4  6 0  6 4 -3 2

:CHA003: TOTAL VALENCE CHARGE INSIDE SPHERE   3 =  13.2242    (RMT=  2.4300 )
:PCS003: PARTIAL CHARGES SPHERE =  3 S,P,D,F,      D-EG,D-T2G 
:QTL003: 0.3765 6.3548 6.4332 0.0476 0.0000 0.0000 0.0000 2.4524 3.9808 0.0000 0.0000 0.0000
        Q-s-low E-s-low   Q-p-low E-p-low   Q-d-low E-d-low   Q-f-low E-f-low
:EPL003:  0.0003 -3.0414    5.9580 -2.6206    0.0008 -3.0517    0.0004 -3.0492
        Q-s-hi  E-s-hi    Q-p-hi  E-p-hi    Q-d-hi  E-d-hi    Q-f-hi  E-f-hi 
:EPH003:  0.3761  0.3556    0.3968  0.5201    6.4324  0.5403    0.0472  0.6132

:CHA  : TOTAL VALENCE CHARGE INSIDE UNIT CELL =      58.000000

:SUM  : SUM OF EIGENVALUES =         -50.100169607


        1.ATOM      Fe1                   5 CORE STATES
:1S 001: 1S                -512.973212817 Ry
:2S 001: 2S                 -58.881486333 Ry
:2PP001: 2P*                -50.584978553 Ry
:2P 001: 2P                 -49.667477094 Ry
:3S 001: 3S                  -5.601976069 Ry

        2.ATOM      Fe2                   5 CORE STATES
:1S 002: 1S                -512.973212820 Ry
:2S 002: 2S                 -58.881486335 Ry
:2PP002: 2P*                -50.584978556 Ry
:2P 002: 2P                 -49.667477097 Ry
:3S 002: 3S                  -5.601976071 Ry

        3.ATOM      Rh1                  10 CORE STATES
:1S 003: 1S               -1691.301322050 Ry
:2S 003: 2S                -244.192348121 Ry
:2PP003: 2P*               -226.002397352 Ry
:2P 003: 2P                -215.373105508 Ry
:3S 003: 3S                 -42.728951883 Ry
:3PP003: 3P*                -35.610868695 Ry
:3P 003: 3P                 -33.782363214 Ry
:3DD003: 3D*                -21.184295269 Ry
:3D 003: 3D                 -20.823706008 Ry
:4S 003: 4S                  -4.970097866 Ry
:CINT001 Core Integral Atom   1   11.999202
:CINT002 Core Integral Atom   2   11.999202
:CINT003 Core Integral Atom   3   29.997264

       DENSITY AT NUCLEUS
        JATOM        VALENCE       SEMI-CORE          CORE           TOTAL
:RTO001:   1        7.019515        0.000000    15301.671478    15308.690993
:RTO002:   2        7.019515        0.000000    15301.671478    15308.690993
:RTO003:   3       24.588127        0.000000   155311.137661   155335.725788
     
       CHARGES OF NEW CHARGE DENSITY
:NTO   : INTERSTITIAL CHARGE =     4.987647
:NPC   : PW Pseudocharge     =    11.528586
:NTO001: CHARGE SPHERE  1    =    25.281137
:NTO002: CHARGE SPHERE  2    =    25.281137
:NTO003: CHARGE SPHERE  3    =    43.221473

:NEC01: NUCLEAR AND ELECTRONIC CHARGE    142.00000   141.99287
     
       CHARGES OF OLD CHARGE DENSITY
:OTO   : INTERSTITIAL CHARGE =     3.843245
:OPC   : PW Pseudocharge     =    11.822271
:OTO001: CHARGE SPHERE  1    =    25.261656
:OTO002: CHARGE SPHERE  2    =    25.261656
:OTO003: CHARGE SPHERE  3    =    43.816721

:NEC02: NUCLEAR AND ELECTRONIC CHARGE    142.00000   142.00000
     
       CONVERGENCE TEST
:DTO001: DIFFERENCE IN SPHERE  1 =  0.5264364
:DTO002: DIFFERENCE IN SPHERE  2 =  0.5264363
:DTO003: DIFFERENCE IN SPHERE  3 =  0.6992909

:DIS  :  CHARGE DISTANCE       ( 0.6992909 for atom    3 spin 1)      0.6128636
 PW Mixed is           49
 
******************************************************
* MULTISECANT MIXING VER9 RELEASE 10.4.0              *
* Standard Mode with controls                        *
* Fixed density scale                                *
* Regularization       1.000E-04                     *
* Trust Upper Limit    5.000E+00                     *
* Max Number of Memory Steps    8                    *
******************************************************
 
:PWTMP   1.1765E+02  4.5917E+02  3.5807E+02
:PLANE:  PW TOTAL      1.8230 DISTAN   4.32E-01  2.37E+01 %
:CHARG:  CLM/ATOM    299.8784 DISTAN   4.17E-01  1.39E-01 %
 
Step History
        DMIX         DMIXT        Red     Pred      Trust     Lambda    MagRel    MagAbs     Beta
  1   3.5000E-02   3.5000E-02 -1.00E+00  1.00E+00 -1.00E+01  1.00E+00  3.50E-02  3.50E-02  1.00E+00
  2   2.5000E-02   2.5000E-02  5.93E-01  1.00E+00 -1.00E+01  1.00E+00  2.50E-02  5.93E-02  1.00E+00
  3   3.7463E-02   3.7463E-02 -1.00E+00  1.00E+00 -1.00E+01  1.00E+00  3.75E-02  5.27E-02  1.00E+00
:JACOBIANS    7.376E-01   1.699E-03
  
:NORMS:  1/Froebius, Min, Max, Used   0.9875E+00  0.4972E+00  0.9944E+00  0.9876E+00
:INFO :  Number of Memory Steps    2 Skipping    0
:INFO :  SLambda=    0.1695771977  Max    0.1695771977
:PREDicted Charge, CTotal, PW Trust    5.647E-03   9.215E-03   5.018E-01
:PREDicted DMix, Beta, BLim   6.8193E-02  8.3092E-01  4.0263E-01

Eigenvalues, unscaled except for SY+YY
   #     SY Real        SY Imag          SS             YY         SY+YY Real      SY+YY Imag
   1   6.994405E-15   0.000000E+00   1.950346E+00   1.999525E+00   4.763016E-04   0.000000E+00
   2   1.956732E+00   0.000000E+00   0.000000E+00   4.752120E-04   2.331341E+00   0.000000E+00
 
:INFO :  Singular value  2.331E+00 Weight  1.000E+00 Projection  1.743E-02
:INFO :  Singular value  4.763E-04 Weight  8.502E-01 Projection -2.412E+01
:RANK :  ACTIVE   1.85/2  =  92.51 % ; YY RANK   1.85/2  =  92.48 %
 
:DLIM :  Beta Active  8.732E-01
:BLIM :  VZERO Control Off
:TRUST:  Step 2.53E-01  Charge 7.50E-02 (e) CTO  2.50E-01 (e) PW  3.85E-01 (e)
:DIRM :  MEMORY  2/8  SCALE   1.000 RED  0.94 PRED  1.00 NEXT  0.89 BETA  0.87
:TRAVE:  Charge 2.41E-02 (e) CTO  5.71E-02 (e) PW  9.26E-02 (e)
:DIRP :  |MSR1|= 7.614E-02 |PRATT|= 4.322E-01 ANGLE=  56.8 DEGREES
:DIRQ :  |MSR1|= 5.447E-02 |PRATT|= 1.252E+00 ANGLE=  25.4 DEGREES
:DIRT :  |MSR1|= 9.362E-02 |PRATT|= 1.324E+00 ANGLE=  50.1 DEGREES
:MIX  :   MSD1   REGULARIZATION:  2.00E-04 GREED: 0.05096  Newton 1.00  0.0707                
     
       CHARGES OF MIXED CHARGE DENSITY
:CTO   : INTERSTITIAL CHARGE =     3.900333
:CPC   : PW Pseudocharge     =    12.047096
:CTO001: CHARGE SPHERE  1    =    25.257215
:CTO002: CHARGE SPHERE  2    =    25.257215
:CTO003: CHARGE SPHERE  3    =    43.792618

:NEC03: NUCLEAR AND ELECTRONIC CHARGE    142.00000   142.00000

PW CHANGE     H    K    L      Current       Change    Residue
:PTO001:      0    0    0  4.45371364E-02  7.873E-04  2.442E-03
:PTO003:      0    0   -2 -1.81675313E-02 -7.655E-04  5.847E-03
:PTO004:      0   -2   -2  5.58439105E-03  4.396E-03 -4.768E-03
:PTO005:     -1   -1   -3 -2.31293343E-12 -2.314E-12 -3.733E-12
:PTO006:     -2   -2   -2  5.58386838E-03 -8.479E-04 -2.848E-03
:PTO007:      0    0   -4 -1.92267212E-02  1.666E-03  8.428E-03
:PTO008:     -1   -3   -3  2.76746239E-12  2.767E-12  1.649E-10
:PTO009:      0   -2   -4  2.30266013E-02 -1.616E-03 -1.403E-02
:PTO010:     -2   -2   -4 -5.62558949E-02  4.350E-03  4.078E-02
:PTO012:     -1   -1   -5  1.46104556E-12  1.461E-12 -1.373E-11
:PTO013:      0   -4   -4 -1.37359626E-02  1.114E-03  1.374E-02
:PTO015:     -2   -4   -4  5.65012187E-03 -2.064E-04 -4.587E-03

:ENE  : ********** TOTAL ENERGY IN Ry =       -24232.20903469

 Flat Integration
 New Mode for Coulomb Integral
 Consistent 3/8+Simpson combinations
 Extension of core to zero
 LDM version in phi
 Fifth-order quadrature in outwin


            ---------
:ITE004:  4. ITERATION
            ---------

:NATO :    3 INDEPENDENT AND    4 TOTAL ATOMS IN UNITCELL
       SUBSTANCE: FeRh                                                        

       LATTICE                      = F   
:POT  : POTENTIAL OPTION EX_PBE EC_PBE VX_PBE VC_PBE
:LAT  : LATTICE CONSTANTS= 11.27222 11.27222 11.27222    1.571    1.571    1.571
:VOL  : UNIT CELL VOLUME =     358.07036
       MODE OF CALCULATION IS       = RELA
       NON-SPINPOLARIZED CALCULATION
:IFFT  : FFT-parameters:   90   90   90 Factor: 2.00


   CONVERGENCE PARAMETER FOR PSEUDOCHARGE: NCON=  9
   MAXIMAL VALUE OF RMT(JATOM)*ABSK(NKK) : RK  =29.05063


:VKCOUL :  VK-COUL convergence: 0.532E-07
       ATOMNUMBER=  1 Fe1        VCOUL-ZERO =  0.62572E+00
       ATOMNUMBER=  2 Fe2        VCOUL-ZERO =  0.62572E+00
       ATOMNUMBER=  3 Rh1        VCOUL-ZERO =  0.59218E+00
:FIT001: LUSE= 13 SIGMA OF V-XC FIT FOR ATOM  1  0.4700380E-02
:FIT001: LUSE= 13 SIGMA OF V-XC FIT FOR ATOM  1  0.4700380E-02
:FIT002: LUSE= 13 SIGMA OF V-XC FIT FOR ATOM  2  0.4700380E-02
:FIT002: LUSE= 13 SIGMA OF V-XC FIT FOR ATOM  2  0.4700380E-02
:FIT003: LUSE= 13 SIGMA OF V-XC FIT FOR ATOM  3  0.9359009E-03
:FIT003: LUSE= 13 SIGMA OF V-XC FIT FOR ATOM  3  0.9359009E-03
:DEN  : DENSITY INTEGRAL  =         -9877.97811270   (Ry)
       ELS_POTENTIAL_AT Z=0 and Z=0.5:  -0.20640  -0.20640
       ELS_POTENTIAL_AT Y=0 and Y=0.5:   0.00000   0.00000
:VZERO:v0,v0c,v0x  -0.75930  -0.20640  -0.55290 v5,v5c,v5x  -0.75930  -0.20640  -0.55290
:VZERY:v0,v0c,v0x  -0.78652   0.00000  -0.78652 v5,v5c,v5x  -0.78652   0.00000  -0.78652
:VZERX:v0,v0c,v0x  -0.78652   0.00000  -0.78652 v5,v5c,v5x  -0.78652   0.00000  -0.78652
:LMAX-WF:   10   Non-Spherical LMAX:   4

          ATOMIC SPHERE DEPENDENT PARAMETERS FOR ATOM  Fe1       
:e__0001: OVERALL ENERGY PARAMETER IS    0.5549
          OVERALL BASIS SET ON ATOM IS LAPW
:E1_0001: E( 1)=    0.5549
             APW+lo
:E1_0001: E( 1)=   -3.1412   E(BOTTOM)=   -3.174   E(TOP)=   -3.108  1  2   182
             LOCAL ORBITAL
:E2_0001: E( 2)=    0.6408   E(BOTTOM)=    0.396   E(TOP)=    0.886  0  1   122
             APW+lo
:E0_0001: E( 0)=    0.5549
             APW+lo

          ATOMIC SPHERE DEPENDENT PARAMETERS FOR ATOM  Fe2       
:e__0002: OVERALL ENERGY PARAMETER IS    0.5549
          OVERALL BASIS SET ON ATOM IS LAPW
:E1_0002: E( 1)=    0.5549
             APW+lo
:E1_0002: E( 1)=   -3.1412   E(BOTTOM)=   -3.174   E(TOP)=   -3.108  1  2   182
             LOCAL ORBITAL
:E2_0002: E( 2)=    0.6408   E(BOTTOM)=    0.396   E(TOP)=    0.886  0  1   122
             APW+lo
:E0_0002: E( 0)=    0.5549
             APW+lo

          ATOMIC SPHERE DEPENDENT PARAMETERS FOR ATOM  Rh1       
:e__0003: OVERALL ENERGY PARAMETER IS    0.5549
          OVERALL BASIS SET ON ATOM IS LAPW
:E1_0003: E( 1)=    0.5549
             APW+lo
:E1_0003: E( 1)=   -2.6545   E(BOTTOM)=   -2.753   E(TOP)=   -2.556  2  3   168
             LOCAL ORBITAL
:E2_0003: E( 2)=    0.5549   E(BOTTOM)=    0.157   E(TOP)= -200.000  1 -1    91
             APW+lo
:E0_0003: E( 0)=    0.5549
             APW+lo

       K=   0.00000   0.00000   0.00000            1
:RKM  : MATRIX SIZE   185LOs:  48  RKM= 6.64  WEIGHT= 1.00  PGR:    
       EIGENVALUES ARE:
:EIG00001:      -3.1351637   -3.1351637   -3.1351637   -3.1333501   -3.1333501
:EIG00006:      -3.1333501   -2.6375210   -2.6375210   -2.6375210   -2.6298863
:EIG00011:      -2.6298863   -2.6298863    0.0922014    0.3497205    0.3497205
:EIG00016:       0.4160516    0.4160516    0.4160516    0.5632603    0.5632603
:EIG00021:       0.5632603    0.5809219    0.5809219    0.5809219    0.7280923
:EIG00026:       0.7280923    0.7545361    0.7545361    0.7608828    0.7608828
:EIG00031:       0.8173891    0.8173891    0.8173891    1.2825145    1.3443233
:EIG00036:       1.3443233    1.3443233    1.3515368    1.3515368    1.3515368
:EIG00041:       1.4539673    1.4539673    1.4539673    1.5086263    2.0119857
:EIG00046:       2.0119857    2.0918783    2.1744484    2.1744484    2.1744484
 
       ********************************************************

:KPT   :      NUMBER OF K-POINTS:   165
:GAP (global)   :    0.0    Ry =     0.0   eV (metal)
         Bandranges (emin - emax) and occupancy:
:BAN00021:  21    0.505160    0.578450  2.00000000
:BAN00022:  22    0.508151    0.637533  2.00000000
:BAN00023:  23    0.509234    0.659136  2.00000000
:BAN00024:  24    0.518238    0.669116  2.00000000
:BAN00025:  25    0.644847    0.728092  2.00000000
:BAN00026:  26    0.667094    0.739935  2.00000117
:BAN00027:  27    0.677063    0.754536  1.93012394
:BAN00028:  28    0.697452    0.754536  1.89349988
:BAN00029:  29    0.715284    0.775694  1.56367441
:BAN00030:  30    0.726767    0.786429  0.60356001
:BAN00031:  31    0.743199    0.817389  0.00914058
:BAN00032:  32    0.751504    0.817389  0.00000000
:BAN00033:  33    0.763960    0.834526  0.00000000
:BAN00034:  34    0.800274    1.284732  0.00000000
:BAN00035:  35    0.840177    1.344323  0.00000000
:BAN00036:  36    0.842228    1.344323  0.00000000
        Energy to separate low and high energystates:    0.04220


:NOE  : NUMBER OF ELECTRONS          =   58.000

:FER  : F E R M I - ENERGY(TETRAH.M.)=   0.7450300055
:GMA  : POTENTIAL AND CHARGE CUT-OFF  12.00 Ry**.5

:POS001: ATOM    1 X,Y,Z = 0.00000 0.00000 0.00000  MULT= 1  ZZ= 26.000  Fe1       

       LMMAX  5
       LM=   0 0  4 0  4 4  6 0  6 4

:CHA001: TOTAL VALENCE CHARGE INSIDE SPHERE   1 =  13.3434    (RMT=  2.4300 )
:PCS001: PARTIAL CHARGES SPHERE =  1 S,P,D,F,      D-EG,D-T2G 
:QTL001: 0.4727 6.5217 6.2770 0.0534 0.0000 0.0000 0.0000 2.4627 3.8143 0.0000 0.0000 0.0000
        Q-s-low E-s-low   Q-p-low E-p-low   Q-d-low E-d-low   Q-f-low E-f-low
:EPL001:  0.0011 -2.6429    5.9900 -3.1340    0.0026 -2.6385    0.0011 -2.6390
        Q-s-hi  E-s-hi    Q-p-hi  E-p-hi    Q-d-hi  E-d-hi    Q-f-hi  E-f-hi 
:EPH001:  0.4716  0.3326    0.5317  0.4866    6.2743  0.6158    0.0523  0.5626

:POS002: ATOM    2 X,Y,Z = 0.50000 0.00000 0.00000  MULT= 1  ZZ= 26.000  Fe2       

       LMMAX  5
       LM=   0 0  4 0  4 4  6 0  6 4

:CHA002: TOTAL VALENCE CHARGE INSIDE SPHERE   2 =  13.3434    (RMT=  2.4300 )
:PCS002: PARTIAL CHARGES SPHERE =  2 S,P,D,F,      D-EG,D-T2G 
:QTL002: 0.4727 6.5217 6.2770 0.0534 0.0000 0.0000 0.0000 2.4627 3.8143 0.0000 0.0000 0.0000
        Q-s-low E-s-low   Q-p-low E-p-low   Q-d-low E-d-low   Q-f-low E-f-low
:EPL002:  0.0011 -2.6429    5.9900 -3.1340    0.0026 -2.6385    0.0011 -2.6390
        Q-s-hi  E-s-hi    Q-p-hi  E-p-hi    Q-d-hi  E-d-hi    Q-f-hi  E-f-hi 
:EPH002:  0.4716  0.3326    0.5317  0.4866    6.2743  0.6158    0.0523  0.5626

:POS003: ATOM    3 X,Y,Z = 0.25000 0.25000 0.25000  MULT= 2  ZZ= 45.000  Rh1       

       LMMAX  6
       LM=   0 0  4 0  4 4  6 0  6 4 -3 2

:CHA003: TOTAL VALENCE CHARGE INSIDE SPHERE   3 =  13.1994    (RMT=  2.4300 )
:PCS003: PARTIAL CHARGES SPHERE =  3 S,P,D,F,      D-EG,D-T2G 
:QTL003: 0.3733 6.3460 6.4216 0.0463 0.0000 0.0000 0.0000 2.4472 3.9744 0.0000 0.0000 0.0000
        Q-s-low E-s-low   Q-p-low E-p-low   Q-d-low E-d-low   Q-f-low E-f-low
:EPL003:  0.0003 -3.0595    5.9584 -2.6343    0.0008 -3.0700    0.0004 -3.0674
        Q-s-hi  E-s-hi    Q-p-hi  E-p-hi    Q-d-hi  E-d-hi    Q-f-hi  E-f-hi 
:EPH003:  0.3730  0.3508    0.3876  0.5125    6.4208  0.5314    0.0459  0.6017

:CHA  : TOTAL VALENCE CHARGE INSIDE UNIT CELL =      58.000000

:SUM  : SUM OF EIGENVALUES =         -50.796625582


        1.ATOM      Fe1                   5 CORE STATES
:1S 001: 1S                -513.010021917 Ry
:2S 001: 2S                 -58.916815203 Ry
:2PP001: 2P*                -50.620731503 Ry
:2P 001: 2P                 -49.703187304 Ry
:3S 001: 3S                  -5.622278649 Ry

        2.ATOM      Fe2                   5 CORE STATES
:1S 002: 1S                -513.010021921 Ry
:2S 002: 2S                 -58.916815206 Ry
:2PP002: 2P*                -50.620731506 Ry
:2P 002: 2P                 -49.703187307 Ry
:3S 002: 3S                  -5.622278651 Ry

        3.ATOM      Rh1                  10 CORE STATES
:1S 003: 1S               -1691.324880195 Ry
:2S 003: 2S                -244.215402100 Ry
:2PP003: 2P*               -226.025599433 Ry
:2P 003: 2P                -215.396273690 Ry
:3S 003: 3S                 -42.749575769 Ry
:3PP003: 3P*                -35.631556997 Ry
:3P 003: 3P                 -33.802963680 Ry
:3DD003: 3D*                -21.205160947 Ry
:3D 003: 3D                 -20.844540897 Ry
:4S 003: 4S                  -4.985206270 Ry
:CINT001 Core Integral Atom   1   11.999213
:CINT002 Core Integral Atom   2   11.999213
:CINT003 Core Integral Atom   3   29.997288

       DENSITY AT NUCLEUS
        JATOM        VALENCE       SEMI-CORE          CORE           TOTAL
:RTO001:   1        6.956076        0.000000    15302.008298    15308.964374
:RTO002:   2        6.956076        0.000000    15302.008298    15308.964374
:RTO003:   3       24.346377        0.000000   155311.736524   155336.082901
     
       CHARGES OF NEW CHARGE DENSITY
:NTO   : INTERSTITIAL CHARGE =     4.914491
:NPC   : PW Pseudocharge     =    11.404271
:NTO001: CHARGE SPHERE  1    =    25.342579
:NTO002: CHARGE SPHERE  2    =    25.342579
:NTO003: CHARGE SPHERE  3    =    43.196646

:NEC01: NUCLEAR AND ELECTRONIC CHARGE    142.00000   141.99294
     
       CHARGES OF OLD CHARGE DENSITY
:OTO   : INTERSTITIAL CHARGE =     3.900333
:OPC   : PW Pseudocharge     =    12.047096
:OTO001: CHARGE SPHERE  1    =    25.257215
:OTO002: CHARGE SPHERE  2    =    25.257215
:OTO003: CHARGE SPHERE  3    =    43.792618

:NEC02: NUCLEAR AND ELECTRONIC CHARGE    142.00000   142.00000
     
       CONVERGENCE TEST
:DTO001: DIFFERENCE IN SPHERE  1 =  0.3686847
:DTO002: DIFFERENCE IN SPHERE  2 =  0.3686846
:DTO003: DIFFERENCE IN SPHERE  3 =  0.6700955

:DIS  :  CHARGE DISTANCE       ( 0.6700955 for atom    3 spin 1)      0.5193901
 PW Mixed is           49
 
******************************************************
* MULTISECANT MIXING VER9 RELEASE 10.4.0              *
* Standard Mode with controls                        *
* Fixed density scale                                *
* Regularization       1.000E-04                     *
* Trust Upper Limit    5.000E+00                     *
* Max Number of Memory Steps    8                    *
******************************************************
 
:PWTMP   1.1765E+02  4.5917E+02  3.5807E+02
:PLANE:  PW TOTAL      1.8375 DISTAN   3.93E-01  2.14E+01 %
:CHARG:  CLM/ATOM    299.8763 DISTAN   3.66E-01  1.22E-01 %
 
Step History
        DMIX         DMIXT        Red     Pred      Trust     Lambda    MagRel    MagAbs     Beta
  1   3.5000E-02   3.5000E-02 -1.00E+00  1.00E+00 -1.00E+01  1.00E+00  3.50E-02  3.50E-02  1.00E+00
  2   2.5000E-02   2.5000E-02  5.93E-01  1.00E+00 -1.00E+01  1.00E+00  2.50E-02  5.93E-02  1.00E+00
  3   3.7463E-02   3.7463E-02  9.42E-01  1.00E+00 -1.00E+01  1.70E-01  3.75E-02  5.27E-02  1.00E+00
  4   5.0962E-02   5.0962E-02 -1.00E+00  8.92E-01  2.53E-01  1.00E+00  7.07E-02  9.36E-02  8.73E-01
:JACOBIANS    8.686E-01   1.059E-01
  
:NORMS:  1/Froebius, Min, Max, Used   0.7896E+00  0.4032E+00  0.9947E+00  0.9694E+00
:INFO :  Number of Memory Steps    3 Skipping    0
:INFO :  SLambda=    1.5264226388  Max    1.5264226388
:PREDicted Charge, CTotal, PW Trust    1.180E-01   2.767E-01   1.235E-01
:PREDicted DMix, Beta, BLim   2.1311E-01  2.0092E+00  4.0344E-01

Eigenvalues, unscaled except for SY+YY
   #     SY Real        SY Imag          SS             YY         SY+YY Real      SY+YY Imag
   1   1.815759E+00   0.000000E+00   1.802558E+00   1.918179E+00   4.664702E+00   0.000000E+00
   2   7.481382E-15   0.000000E+00   6.764722E-02   1.081358E+00   4.698346E-04   0.000000E+00
   3   2.342615E-01   0.000000E+00  -1.292686E-16   4.625509E-04   1.464026E+00   0.000000E+00
 
:INFO :  Singular value  4.665E+00 Weight  1.000E+00 Projection -8.255E-02
:INFO :  Singular value  1.464E+00 Weight  1.000E+00 Projection -7.577E-01
:INFO :  Singular value  4.698E-04 Weight  8.571E-01 Projection  2.962E+01
:RANK :  ACTIVE   2.86/3  =  95.24 % ; YY RANK   2.85/3  =  95.11 %
 
:BLIM :  VZERO Control Off
:TRUST:  Step 3.77E-01  Charge 8.25E-02 (e) CTO  2.75E-01 (e) PW  3.85E-01 (e)
:DTRUS:  Lambda    3.775E+01 Increment    7.276E-12 Iterations   148 DMIX    9.216E-02
:INFOA:  Angle SubSpace to MSR1      6.41
:DIRM :  MEMORY  3/8  SCALE   1.000 RED  0.88 PRED  0.89 NEXT  0.59 
:INFO :  Limited by Atoms F by Step T

:TRAVE:  Charge 5.33E-02 (e) CTO  1.02E-01 (e) PW  4.75E-02 (e)
:DIRP :  |MSR1|= 6.454E-02 |PRATT|= 3.929E-01 ANGLE=   7.0 DEGREES
:DIRQ :  |MSR1|= 1.134E-01 |PRATT|= 1.097E+00 ANGLE=  30.8 DEGREES
:DIRT :  |MSR1|= 1.305E-01 |PRATT|= 1.165E+00 ANGLE=  29.7 DEGREES
:MIX  :   MSE1   REGULARIZATION:  1.92E-04 GREED: 0.12741  LMStep 0.52  0.1120 Charge         
     
       CHARGES OF MIXED CHARGE DENSITY
:CTO   : INTERSTITIAL CHARGE =     4.048033
:CPC   : PW Pseudocharge     =    11.892277
:CTO001: CHARGE SPHERE  1    =    25.265865
:CTO002: CHARGE SPHERE  2    =    25.265865
:CTO003: CHARGE SPHERE  3    =    43.710118

:NEC03: NUCLEAR AND ELECTRONIC CHARGE    142.00000   142.00000

PW CHANGE     H    K    L      Current       Change    Residue
:PTO001:      0    0    0  4.45172578E-02 -1.988E-05  1.103E-03
:PTO002:     -1   -1   -1 -4.19885835E-12 -3.433E-12 -1.061E-10
:PTO003:      0    0   -2 -1.70560877E-02  1.111E-03  6.694E-03
:PTO004:      0   -2   -2  4.03416527E-03 -1.550E-03 -8.780E-03
:PTO005:     -1   -1   -3 -1.20844702E-11 -9.772E-12 -5.894E-12
:PTO006:     -2   -2   -2  5.26714456E-03 -3.167E-04 -1.964E-03
:PTO007:      0    0   -4 -1.80516607E-02  1.175E-03  6.886E-03
:PTO008:     -1   -3   -3  1.53202407E-11  1.255E-11  1.704E-10
:PTO009:      0   -2   -4  2.09544174E-02 -2.072E-03 -1.250E-02
:PTO010:     -2   -2   -4 -5.02920599E-02  5.964E-03  3.647E-02
:PTO012:     -1   -1   -5  7.23713490E-12  5.776E-12 -1.339E-11
:PTO013:      0   -4   -4 -1.16811109E-02  2.055E-03  1.260E-02

:ENE  : ********** TOTAL ENERGY IN Ry =       -24232.17818619

 Flat Integration
 New Mode for Coulomb Integral
 Consistent 3/8+Simpson combinations
 Extension of core to zero
 LDM version in phi
 Fifth-order quadrature in outwin


            ---------
:ITE005:  5. ITERATION
            ---------

:NATO :    3 INDEPENDENT AND    4 TOTAL ATOMS IN UNITCELL
       SUBSTANCE: FeRh                                                        

       LATTICE                      = F   
:POT  : POTENTIAL OPTION EX_PBE EC_PBE VX_PBE VC_PBE
:LAT  : LATTICE CONSTANTS= 11.27222 11.27222 11.27222    1.571    1.571    1.571
:VOL  : UNIT CELL VOLUME =     358.07036
       MODE OF CALCULATION IS       = RELA
       NON-SPINPOLARIZED CALCULATION
:IFFT  : FFT-parameters:   90   90   90 Factor: 2.00


   CONVERGENCE PARAMETER FOR PSEUDOCHARGE: NCON=  9
   MAXIMAL VALUE OF RMT(JATOM)*ABSK(NKK) : RK  =29.05063


:VKCOUL :  VK-COUL convergence: 0.549E-07
       ATOMNUMBER=  1 Fe1        VCOUL-ZERO =  0.63402E+00
       ATOMNUMBER=  2 Fe2        VCOUL-ZERO =  0.63402E+00
       ATOMNUMBER=  3 Rh1        VCOUL-ZERO =  0.59122E+00
:FIT001: LUSE= 13 SIGMA OF V-XC FIT FOR ATOM  1  0.3912760E-02
:FIT001: LUSE= 13 SIGMA OF V-XC FIT FOR ATOM  1  0.3912760E-02
:FIT002: LUSE= 13 SIGMA OF V-XC FIT FOR ATOM  2  0.3912760E-02
:FIT002: LUSE= 13 SIGMA OF V-XC FIT FOR ATOM  2  0.3912760E-02
:FIT003: LUSE= 13 SIGMA OF V-XC FIT FOR ATOM  3  0.2737586E-03
:FIT003: LUSE= 13 SIGMA OF V-XC FIT FOR ATOM  3  0.2737586E-03
:DEN  : DENSITY INTEGRAL  =         -9871.49202996   (Ry)
       ELS_POTENTIAL_AT Z=0 and Z=0.5:  -0.17082  -0.17082
       ELS_POTENTIAL_AT Y=0 and Y=0.5:   0.00000   0.00000
:VZERO:v0,v0c,v0x  -0.73485  -0.17082  -0.56403 v5,v5c,v5x  -0.73485  -0.17082  -0.56403
:VZERY:v0,v0c,v0x  -0.78929   0.00000  -0.78929 v5,v5c,v5x  -0.78929   0.00000  -0.78929
:VZERX:v0,v0c,v0x  -0.78929   0.00000  -0.78929 v5,v5c,v5x  -0.78929   0.00000  -0.78929
:LMAX-WF:   10   Non-Spherical LMAX:   4

          ATOMIC SPHERE DEPENDENT PARAMETERS FOR ATOM  Fe1       
:e__0001: OVERALL ENERGY PARAMETER IS    0.5483
          OVERALL BASIS SET ON ATOM IS LAPW
:E1_0001: E( 1)=    0.5483
             APW+lo
:E1_0001: E( 1)=   -3.1649   E(BOTTOM)=   -3.197   E(TOP)=   -3.133  1  2   180
             LOCAL ORBITAL
:E2_0001: E( 2)=    0.6231   E(BOTTOM)=    0.383   E(TOP)=    0.863  0  1   126
             APW+lo
:E0_0001: E( 0)=    0.5483
             APW+lo

          ATOMIC SPHERE DEPENDENT PARAMETERS FOR ATOM  Fe2       
:e__0002: OVERALL ENERGY PARAMETER IS    0.5483
          OVERALL BASIS SET ON ATOM IS LAPW
:E1_0002: E( 1)=    0.5483
             APW+lo
:E1_0002: E( 1)=   -3.1649   E(BOTTOM)=   -3.197   E(TOP)=   -3.133  1  2   180
             LOCAL ORBITAL
:E2_0002: E( 2)=    0.6231   E(BOTTOM)=    0.383   E(TOP)=    0.863  0  1   126
             APW+lo
:E0_0002: E( 0)=    0.5483
             APW+lo

          ATOMIC SPHERE DEPENDENT PARAMETERS FOR ATOM  Rh1       
:e__0003: OVERALL ENERGY PARAMETER IS    0.5483
          OVERALL BASIS SET ON ATOM IS LAPW
:E1_0003: E( 1)=    0.5483
             APW+lo
:E1_0003: E( 1)=   -2.7019   E(BOTTOM)=   -2.798   E(TOP)=   -2.606  2  3   164
             LOCAL ORBITAL
:E2_0003: E( 2)=    0.5483   E(BOTTOM)=    0.128   E(TOP)= -200.000  1 -1    97
             APW+lo
:E0_0003: E( 0)=    0.5483
             APW+lo

       K=   0.00000   0.00000   0.00000            1
:RKM  : MATRIX SIZE   185LOs:  48  RKM= 6.64  WEIGHT= 1.00  PGR:    
       EIGENVALUES ARE:
:EIG00001:      -3.1589542   -3.1589542   -3.1589542   -3.1572061   -3.1572061
:EIG00006:      -3.1572061   -2.6852612   -2.6852612   -2.6852612   -2.6778820
:EIG00011:      -2.6778820   -2.6778820    0.0847169    0.3278431    0.3278431
:EIG00016:       0.3918989    0.3918989    0.3918989    0.5478608    0.5478608
:EIG00021:       0.5478608    0.5533375    0.5533375    0.5533375    0.7036872
:EIG00026:       0.7036872    0.7218470    0.7218470    0.7350237    0.7350237
:EIG00031:       0.7888418    0.7888418    0.7888418    1.2775337    1.3273844
:EIG00036:       1.3273844    1.3273844    1.3426766    1.3426766    1.3426766
:EIG00041:       1.4337419    1.4337419    1.4337419    1.4925771    1.9922344
:EIG00046:       1.9922344    2.0812042    2.1672774    2.1672774    2.1672774
 
       ********************************************************

:KPT   :      NUMBER OF K-POINTS:   165
:GAP (global)   :    0.0    Ry =     0.0   eV (metal)
         Bandranges (emin - emax) and occupancy:
:BAN00021:  21    0.480177    0.551204  2.00000000
:BAN00022:  22    0.482922    0.610156  2.00000000
:BAN00023:  23    0.483359    0.638939  2.00000000
:BAN00024:  24    0.495474    0.650578  2.00000000
:BAN00025:  25    0.625207    0.703687  2.00000000
:BAN00026:  26    0.649188    0.711637  2.00000000
:BAN00027:  27    0.658400    0.721847  1.99864412
:BAN00028:  28    0.674862    0.721847  1.97260932
:BAN00029:  29    0.692340    0.749792  1.51236171
:BAN00030:  30    0.704576    0.762691  0.50582905
:BAN00031:  31    0.713372    0.788842  0.01055579
:BAN00032:  32    0.730585    0.788842  0.00000000
:BAN00033:  33    0.737602    0.810491  0.00000000
:BAN00034:  34    0.775091    1.278413  0.00000000
:BAN00035:  35    0.808471    1.327384  0.00000000
:BAN00036:  36    0.813479    1.327384  0.00000000
        Energy to separate low and high energystates:    0.03472


:NOE  : NUMBER OF ELECTRONS          =   58.000

:FER  : F E R M I - ENERGY(TETRAH.M.)=   0.7185580221
:GMA  : POTENTIAL AND CHARGE CUT-OFF  12.00 Ry**.5

:POS001: ATOM    1 X,Y,Z = 0.00000 0.00000 0.00000  MULT= 1  ZZ= 26.000  Fe1       

       LMMAX  5
       LM=   0 0  4 0  4 4  6 0  6 4

:CHA001: TOTAL VALENCE CHARGE INSIDE SPHERE   1 =  13.1204    (RMT=  2.4300 )
:PCS001: PARTIAL CHARGES SPHERE =  1 S,P,D,F,      D-EG,D-T2G 
:QTL001: 0.4620 6.4950 6.0932 0.0514 0.0000 0.0000 0.0000 2.3548 3.7384 0.0000 0.0000 0.0000
        Q-s-low E-s-low   Q-p-low E-p-low   Q-d-low E-d-low   Q-f-low E-f-low
:EPL001:  0.0010 -2.6904    5.9901 -3.1578    0.0025 -2.6862    0.0011 -2.6867
        Q-s-hi  E-s-hi    Q-p-hi  E-p-hi    Q-d-hi  E-d-hi    Q-f-hi  E-f-hi 
:EPH001:  0.4610  0.3196    0.5049  0.4653    6.0907  0.5959    0.0503  0.5332

:POS002: ATOM    2 X,Y,Z = 0.50000 0.00000 0.00000  MULT= 1  ZZ= 26.000  Fe2       

       LMMAX  5
       LM=   0 0  4 0  4 4  6 0  6 4

:CHA002: TOTAL VALENCE CHARGE INSIDE SPHERE   2 =  13.1204    (RMT=  2.4300 )
:PCS002: PARTIAL CHARGES SPHERE =  2 S,P,D,F,      D-EG,D-T2G 
:QTL002: 0.4620 6.4950 6.0932 0.0514 0.0000 0.0000 0.0000 2.3548 3.7384 0.0000 0.0000 0.0000
        Q-s-low E-s-low   Q-p-low E-p-low   Q-d-low E-d-low   Q-f-low E-f-low
:EPL002:  0.0010 -2.6904    5.9901 -3.1578    0.0025 -2.6862    0.0011 -2.6867
        Q-s-hi  E-s-hi    Q-p-hi  E-p-hi    Q-d-hi  E-d-hi    Q-f-hi  E-f-hi 
:EPH002:  0.4610  0.3196    0.5049  0.4653    6.0907  0.5959    0.0503  0.5332

:POS003: ATOM    3 X,Y,Z = 0.25000 0.25000 0.25000  MULT= 2  ZZ= 45.000  Rh1       

       LMMAX  6
       LM=   0 0  4 0  4 4  6 0  6 4 -3 2

:CHA003: TOTAL VALENCE CHARGE INSIDE SPHERE   3 =  13.4878    (RMT=  2.4300 )
:PCS003: PARTIAL CHARGES SPHERE =  3 S,P,D,F,      D-EG,D-T2G 
:QTL003: 0.3714 6.3351 6.7256 0.0442 0.0000 0.0000 0.0000 2.6491 4.0765 0.0000 0.0000 0.0000
        Q-s-low E-s-low   Q-p-low E-p-low   Q-d-low E-d-low   Q-f-low E-f-low
:EPL003:  0.0003 -3.0893    5.9598 -2.6822    0.0008 -3.0987    0.0004 -3.0959
        Q-s-hi  E-s-hi    Q-p-hi  E-p-hi    Q-d-hi  E-d-hi    Q-f-hi  E-f-hi 
:EPH003:  0.3711  0.3386    0.3753  0.4963    6.7248  0.5063    0.0438  0.5813

:CHA  : TOTAL VALENCE CHARGE INSIDE UNIT CELL =      58.000000

:SUM  : SUM OF EIGENVALUES =         -52.405396374


        1.ATOM      Fe1                   5 CORE STATES
:1S 001: 1S                -513.053536814 Ry
:2S 001: 2S                 -58.961067653 Ry
:2PP001: 2P*                -50.665197822 Ry
:2P 001: 2P                 -49.747626417 Ry
:3S 001: 3S                  -5.647774151 Ry

        2.ATOM      Fe2                   5 CORE STATES
:1S 002: 1S                -513.053536814 Ry
:2S 002: 2S                 -58.961067651 Ry
:2PP002: 2P*                -50.665197819 Ry
:2P 002: 2P                 -49.747626415 Ry
:3S 002: 3S                  -5.647774149 Ry

        3.ATOM      Rh1                  10 CORE STATES
:1S 003: 1S               -1691.392633112 Ry
:2S 003: 2S                -244.282687942 Ry
:2PP003: 2P*               -226.093076829 Ry
:2P 003: 2P                -215.463705576 Ry
:3S 003: 3S                 -42.812686650 Ry
:3PP003: 3P*                -35.694771739 Ry
:3P 003: 3P                 -33.866025287 Ry
:3DD003: 3D*                -21.268697236 Ry
:3D 003: 3D                 -20.908023106 Ry
:4S 003: 4S                  -5.036602615 Ry
:CINT001 Core Integral Atom   1   11.999228
:CINT002 Core Integral Atom   2   11.999228
:CINT003 Core Integral Atom   3   29.997353

       DENSITY AT NUCLEUS
        JATOM        VALENCE       SEMI-CORE          CORE           TOTAL
:RTO001:   1        6.759663        0.000000    15302.420990    15309.180654
:RTO002:   2        6.759663        0.000000    15302.420990    15309.180653
:RTO003:   3       24.190801        0.000000   155313.094764   155337.285565
     
       CHARGES OF NEW CHARGE DENSITY
:NTO   : INTERSTITIAL CHARGE =     4.783397
:NPC   : PW Pseudocharge     =    11.216141
:NTO001: CHARGE SPHERE  1    =    25.119674
:NTO002: CHARGE SPHERE  2    =    25.119674
:NTO003: CHARGE SPHERE  3    =    43.485176

:NEC01: NUCLEAR AND ELECTRONIC CHARGE    142.00000   141.99310
     
       CHARGES OF OLD CHARGE DENSITY
:OTO   : INTERSTITIAL CHARGE =     4.048033
:OPC   : PW Pseudocharge     =    11.892277
:OTO001: CHARGE SPHERE  1    =    25.265865
:OTO002: CHARGE SPHERE  2    =    25.265865
:OTO003: CHARGE SPHERE  3    =    43.710118

:NEC02: NUCLEAR AND ELECTRONIC CHARGE    142.00000   142.00000
     
       CONVERGENCE TEST
:DTO001: DIFFERENCE IN SPHERE  1 =  0.4350349
:DTO002: DIFFERENCE IN SPHERE  2 =  0.4350351
:DTO003: DIFFERENCE IN SPHERE  3 =  0.3463488

:DIS  :  CHARGE DISTANCE       ( 0.4350351 for atom    2 spin 1)      0.3906919
 PW Mixed is           49
 
******************************************************
* MULTISECANT MIXING VER9 RELEASE 10.4.0              *
* Standard Mode with controls                        *
* Fixed density scale                                *
* Regularization       1.000E-04                     *
* Trust Upper Limit    5.000E+00                     *
* Max Number of Memory Steps    8                    *
******************************************************
 
:PWTMP   1.1765E+02  4.5917E+02  3.5807E+02
:PLANE:  PW TOTAL      1.8158 DISTAN   3.15E-01  1.74E+01 %
:CHARG:  CLM/ATOM    299.8732 DISTAN   2.65E-01  8.83E-02 %
 
Step History
        DMIX         DMIXT        Red     Pred      Trust     Lambda    MagRel    MagAbs     Beta
  1   3.5000E-02   3.5000E-02 -1.00E+00  1.00E+00 -1.00E+01  1.00E+00  3.50E-02  3.50E-02  1.00E+00
  2   2.5000E-02   2.5000E-02  5.93E-01  1.00E+00 -1.00E+01  1.00E+00  2.50E-02  5.93E-02  1.00E+00
  3   3.7463E-02   3.7463E-02  9.42E-01  1.00E+00 -1.00E+01  1.70E-01  3.75E-02  5.27E-02  1.00E+00
  4   5.0962E-02   5.0962E-02  8.80E-01  8.92E-01  2.53E-01  1.53E+00  7.07E-02  9.36E-02  8.73E-01
  5   1.2741E-01   9.2160E-02 -1.00E+00  5.94E-01  3.77E-01  1.00E+00  1.12E-01  1.31E-01  1.00E+00
:JACOBIANS    9.470E-01   2.138E-01
  
:NORMS:  1/Froebius, Min, Max, Used   0.5914E+00  0.3721E+00  0.9977E+00  0.6317E+00
:INFO :  Number of Memory Steps    4 Skipping    0
:INFO :  SLambda=    1.9214556263  Max    1.9214556263
:PREDicted Charge, CTotal, PW Trust    2.288E-01   4.511E-01   4.839E-02
:PREDicted DMix, Beta, BLim   1.1519E-01  1.7461E+00  4.2396E-01

Eigenvalues, unscaled except for SY+YY
   #     SY Real        SY Imag          SS             YY         SY+YY Real      SY+YY Imag
   1   1.271190E+00   0.000000E+00   1.194031E+00   2.992518E+00   4.934522E+00   0.000000E+00
   2   4.056332E-01   0.000000E+00   2.043377E-01   8.970897E-01   2.164530E+00   0.000000E+00
   3   2.933158E-15   0.000000E+00   6.547461E-04   1.103253E-01   8.098900E-05   0.000000E+00
   4   7.663535E-03   0.000000E+00  -6.429361E-17   6.646939E-05   1.375337E-01   0.000000E+00
 
:INFO :  Singular value  4.935E+00 Weight  1.000E+00 Projection -2.582E-01
:INFO :  Singular value  2.165E+00 Weight  1.000E+00 Projection -3.956E-01
:INFO :  Singular value  1.375E-01 Weight  1.000E+00 Projection  1.834E+00
:INFO :  Singular value  8.099E-05 Weight  6.825E-02 Projection -4.788E-01
:RANK :  ACTIVE   3.07/4  =  76.71 % ; YY RANK   3.05/4  =  76.18 %
 
Increasing Charge by   1.397
:BLIM :  VZERO Control Off
:TRUST:  Step 5.02E-01  Charge 1.27E-01 (e) CTO  3.03E-01 (e) PW  3.85E-01 (e)
:DTRUS:  Lambda    8.479E-02 Increment    7.276E-12 Iterations    96 DMIX    9.988E-02
:INFOA:  Angle SubSpace to MSR1      1.30
:DIRM :  MEMORY  4/8  SCALE   1.000 RED  0.73 PRED  0.59 NEXT  0.40 
:INFO :  Limited by Atoms F by Step T

:TRAVE:  Charge 9.00E-02 (e) CTO  1.98E-01 (e) PW  2.84E-02 (e)
:DIRP :  |MSR1|= 1.303E-01 |PRATT|= 3.153E-01 ANGLE=   3.3 DEGREES
:DIRQ :  |MSR1|= 2.450E-01 |PRATT|= 7.947E-01 ANGLE=  18.9 DEGREES
:DIRT :  |MSR1|= 2.775E-01 |PRATT|= 8.550E-01 ANGLE=  18.3 DEGREES
:MIX  :   MSE1   REGULARIZATION:  2.99E-04 GREED: 0.10003  LMStep 0.96  0.3245 Charge         
     
       CHARGES OF MIXED CHARGE DENSITY
:CTO   : INTERSTITIAL CHARGE =     4.341117
:CPC   : PW Pseudocharge     =    11.627484
:CTO001: CHARGE SPHERE  1    =    25.246068
:CTO002: CHARGE SPHERE  2    =    25.246068
:CTO003: CHARGE SPHERE  3    =    43.583374

:NEC03: NUCLEAR AND ELECTRONIC CHARGE    142.00000   142.00000

PW CHANGE     H    K    L      Current       Change    Residue
:PTO001:      0    0    0  4.45962675E-02  7.901E-05  2.299E-04
:PTO002:     -1   -1   -1  3.29562546E-11  3.716E-11  1.997E-10
:PTO003:      0    0   -2 -1.52326934E-02  1.823E-03  4.225E-03
:PTO004:      0   -2   -2  1.90061712E-03 -2.134E-03 -6.431E-03
:PTO005:     -1   -1   -3 -2.10943365E-11 -9.010E-12  2.853E-11
:PTO006:     -2   -2   -2  4.58075308E-03 -6.864E-04 -1.180E-03
:PTO007:      0    0   -4 -1.54538149E-02  2.598E-03  5.905E-03
:PTO008:     -1   -3   -3 -2.78037555E-11 -4.312E-11 -2.861E-10
:PTO009:      0   -2   -4  1.67856129E-02 -4.169E-03 -9.419E-03
:PTO010:     -2   -2   -4 -3.78234956E-02  1.247E-02  3.020E-02
:PTO011:     -3   -3   -3 -7.68643962E-12 -7.917E-12 -3.498E-11
:PTO012:     -1   -1   -5  1.18268027E-11  4.590E-12 -2.709E-11

:ENE  : ********** TOTAL ENERGY IN Ry =       -24232.12228102

 Flat Integration
 New Mode for Coulomb Integral
 Consistent 3/8+Simpson combinations
 Extension of core to zero
 LDM version in phi
 Fifth-order quadrature in outwin


            ---------
:ITE006:  6. ITERATION
            ---------

:NATO :    3 INDEPENDENT AND    4 TOTAL ATOMS IN UNITCELL
       SUBSTANCE: FeRh                                                        

       LATTICE                      = F   
:POT  : POTENTIAL OPTION EX_PBE EC_PBE VX_PBE VC_PBE
:LAT  : LATTICE CONSTANTS= 11.27222 11.27222 11.27222    1.571    1.571    1.571
:VOL  : UNIT CELL VOLUME =     358.07036
       MODE OF CALCULATION IS       = RELA
       NON-SPINPOLARIZED CALCULATION
:IFFT  : FFT-parameters:   90   90   90 Factor: 2.00


   CONVERGENCE PARAMETER FOR PSEUDOCHARGE: NCON=  9
   MAXIMAL VALUE OF RMT(JATOM)*ABSK(NKK) : RK  =29.05063


:VKCOUL :  VK-COUL convergence: 0.601E-07
       ATOMNUMBER=  1 Fe1        VCOUL-ZERO =  0.64670E+00
       ATOMNUMBER=  2 Fe2        VCOUL-ZERO =  0.64670E+00
       ATOMNUMBER=  3 Rh1        VCOUL-ZERO =  0.59328E+00
:FIT001: LUSE= 13 SIGMA OF V-XC FIT FOR ATOM  1  0.2699320E-02
:FIT001: LUSE= 13 SIGMA OF V-XC FIT FOR ATOM  1  0.2699320E-02
:FIT002: LUSE= 13 SIGMA OF V-XC FIT FOR ATOM  2  0.2699320E-02
:FIT002: LUSE= 13 SIGMA OF V-XC FIT FOR ATOM  2  0.2699320E-02
:FIT003: LUSE= 13 SIGMA OF V-XC FIT FOR ATOM  3  0.6486846E-03
:FIT003: LUSE= 13 SIGMA OF V-XC FIT FOR ATOM  3  0.6486846E-03
:DEN  : DENSITY INTEGRAL  =         -9857.37655615   (Ry)
       ELS_POTENTIAL_AT Z=0 and Z=0.5:  -0.14095  -0.14095
       ELS_POTENTIAL_AT Y=0 and Y=0.5:   0.00000   0.00000
:VZERO:v0,v0c,v0x  -0.74823  -0.14095  -0.60728 v5,v5c,v5x  -0.74823  -0.14095  -0.60728
:VZERY:v0,v0c,v0x  -0.79590   0.00000  -0.79590 v5,v5c,v5x  -0.79590   0.00000  -0.79590
:VZERX:v0,v0c,v0x  -0.79590   0.00000  -0.79590 v5,v5c,v5x  -0.79590   0.00000  -0.79590
:LMAX-WF:   10   Non-Spherical LMAX:   4

          ATOMIC SPHERE DEPENDENT PARAMETERS FOR ATOM  Fe1       
:e__0001: OVERALL ENERGY PARAMETER IS    0.5285
          OVERALL BASIS SET ON ATOM IS LAPW
:E1_0001: E( 1)=    0.5285
             APW+lo
:E1_0001: E( 1)=   -3.2531   E(BOTTOM)=   -3.284   E(TOP)=   -3.222  1  2   170
             LOCAL ORBITAL
:E2_0001: E( 2)=    0.5537   E(BOTTOM)=    0.327   E(TOP)=    0.780  0  1   121
             APW+lo
:E0_0001: E( 0)=    0.5285
             APW+lo

          ATOMIC SPHERE DEPENDENT PARAMETERS FOR ATOM  Fe2       
:e__0002: OVERALL ENERGY PARAMETER IS    0.5285
          OVERALL BASIS SET ON ATOM IS LAPW
:E1_0002: E( 1)=    0.5285
             APW+lo
:E1_0002: E( 1)=   -3.2531   E(BOTTOM)=   -3.284   E(TOP)=   -3.222  1  2   171
             LOCAL ORBITAL
:E2_0002: E( 2)=    0.5537   E(BOTTOM)=    0.327   E(TOP)=    0.780  0  1   121
             APW+lo
:E0_0002: E( 0)=    0.5285
             APW+lo

          ATOMIC SPHERE DEPENDENT PARAMETERS FOR ATOM  Rh1       
:e__0003: OVERALL ENERGY PARAMETER IS    0.5285
          OVERALL BASIS SET ON ATOM IS LAPW
:E1_0003: E( 1)=    0.5285
             APW+lo
:E1_0003: E( 1)=   -2.7831   E(BOTTOM)=   -2.876   E(TOP)=   -2.690  2  3   157
             LOCAL ORBITAL
:E2_0003: E( 2)=    0.5083   E(BOTTOM)=    0.078   E(TOP)=    0.939  1  2   144
             APW+lo
:E0_0003: E( 0)=    0.5285
             APW+lo

       K=   0.00000   0.00000   0.00000            1
:RKM  : MATRIX SIZE   185LOs:  48  RKM= 6.64  WEIGHT= 1.00  PGR:    
       EIGENVALUES ARE:
:EIG00001:      -3.2474536   -3.2474536   -3.2474536   -3.2458485   -3.2458485
:EIG00006:      -3.2458485   -2.7669483   -2.7669483   -2.7669483   -2.7600227
:EIG00011:      -2.7600227   -2.7600227    0.0678199    0.2824516    0.2824516
:EIG00016:       0.3478893    0.3478893    0.3478893    0.4914935    0.4914935
:EIG00021:       0.4914935    0.4917994    0.4917994    0.4917994    0.6337703
:EIG00026:       0.6337703    0.6559598    0.6559598    0.6592097    0.6592097
:EIG00031:       0.7137513    0.7137513    0.7137513    1.2567077    1.2843941
:EIG00036:       1.2843941    1.2843941    1.3218231    1.3218231    1.3218231
:EIG00041:       1.3955221    1.3955221    1.3955221    1.4646491    1.9495462
:EIG00046:       1.9495462    2.0555865    2.1536350    2.1536350    2.1536350
 
       ********************************************************

:KPT   :      NUMBER OF K-POINTS:   165
:GAP (global)   :    0.0    Ry =     0.0   eV (metal)
         Bandranges (emin - emax) and occupancy:
:BAN00021:  21    0.426074    0.495574  2.00000000
:BAN00022:  22    0.427967    0.547152  2.00000000
:BAN00023:  23    0.428056    0.573936  2.00000000
:BAN00024:  24    0.443494    0.597323  2.00000000
:BAN00025:  25    0.569770    0.633770  2.00000000
:BAN00026:  26    0.585739    0.643867  2.00000000
:BAN00027:  27    0.595876    0.655960  1.97611267
:BAN00028:  28    0.608054    0.655960  1.91541555
:BAN00029:  29    0.622384    0.676714  1.54043178
:BAN00030:  30    0.636342    0.689453  0.55172653
:BAN00031:  31    0.646165    0.713751  0.01631347
:BAN00032:  32    0.655405    0.717489  0.00000000
:BAN00033:  33    0.665137    0.734030  0.00000000
:BAN00034:  34    0.704506    1.256708  0.00000000
:BAN00035:  35    0.738864    1.284394  0.00000000
:BAN00036:  36    0.752181    1.284394  0.00000000
        Energy to separate low and high energystates:    0.01782


:NOE  : NUMBER OF ELECTRONS          =   58.000

:FER  : F E R M I - ENERGY(TETRAH.M.)=   0.6486632090
:GMA  : POTENTIAL AND CHARGE CUT-OFF  12.00 Ry**.5

:POS001: ATOM    1 X,Y,Z = 0.00000 0.00000 0.00000  MULT= 1  ZZ= 26.000  Fe1       

       LMMAX  5
       LM=   0 0  4 0  4 4  6 0  6 4

:CHA001: TOTAL VALENCE CHARGE INSIDE SPHERE   1 =  13.3238    (RMT=  2.4300 )
:PCS001: PARTIAL CHARGES SPHERE =  1 S,P,D,F,      D-EG,D-T2G 
:QTL001: 0.4426 6.4415 6.3748 0.0470 0.0000 0.0000 0.0000 2.5319 3.8429 0.0000 0.0000 0.0000
        Q-s-low E-s-low   Q-p-low E-p-low   Q-d-low E-d-low   Q-f-low E-f-low
:EPL001:  0.0010 -2.7719    5.9908 -3.2464    0.0024 -2.7679    0.0010 -2.7687
        Q-s-hi  E-s-hi    Q-p-hi  E-p-hi    Q-d-hi  E-d-hi    Q-f-hi  E-f-hi 
:EPH001:  0.4416  0.2895    0.4507  0.4184    6.3724  0.5344    0.0460  0.4765

:POS002: ATOM    2 X,Y,Z = 0.50000 0.00000 0.00000  MULT= 1  ZZ= 26.000  Fe2       

       LMMAX  5
       LM=   0 0  4 0  4 4  6 0  6 4

:CHA002: TOTAL VALENCE CHARGE INSIDE SPHERE   2 =  13.3238    (RMT=  2.4300 )
:PCS002: PARTIAL CHARGES SPHERE =  2 S,P,D,F,      D-EG,D-T2G 
:QTL002: 0.4426 6.4415 6.3748 0.0470 0.0000 0.0000 0.0000 2.5319 3.8429 0.0000 0.0000 0.0000
        Q-s-low E-s-low   Q-p-low E-p-low   Q-d-low E-d-low   Q-f-low E-f-low
:EPL002:  0.0010 -2.7719    5.9908 -3.2464    0.0024 -2.7679    0.0010 -2.7687
        Q-s-hi  E-s-hi    Q-p-hi  E-p-hi    Q-d-hi  E-d-hi    Q-f-hi  E-f-hi 
:EPH002:  0.4416  0.2895    0.4507  0.4184    6.3724  0.5344    0.0460  0.4765

:POS003: ATOM    3 X,Y,Z = 0.25000 0.25000 0.25000  MULT= 2  ZZ= 45.000  Rh1       

       LMMAX  6
       LM=   0 0  4 0  4 4  6 0  6 4 -3 2

:CHA003: TOTAL VALENCE CHARGE INSIDE SPHERE   3 =  13.4558    (RMT=  2.4300 )
:PCS003: PARTIAL CHARGES SPHERE =  3 S,P,D,F,      D-EG,D-T2G 
:QTL003: 0.3576 6.2935 6.7546 0.0393 0.0000 0.0000 0.0000 2.6408 4.1138 0.0000 0.0000 0.0000
        Q-s-low E-s-low   Q-p-low E-p-low   Q-d-low E-d-low   Q-f-low E-f-low
:EPL003:  0.0003 -3.1776    5.9619 -2.7640    0.0007 -3.1871    0.0004 -3.1839
        Q-s-hi  E-s-hi    Q-p-hi  E-p-hi    Q-d-hi  E-d-hi    Q-f-hi  E-f-hi 
:EPH003:  0.3573  0.3055    0.3316  0.4474    6.7539  0.4496    0.0389  0.5203

:CHA  : TOTAL VALENCE CHARGE INSIDE UNIT CELL =      58.000000

:SUM  : SUM OF EIGENVALUES =         -56.257968687


        1.ATOM      Fe1                   5 CORE STATES
:1S 001: 1S                -513.203301293 Ry
:2S 001: 2S                 -59.110077005 Ry
:2PP001: 2P*                -50.815188086 Ry
:2P 001: 2P                 -49.897507925 Ry
:3S 001: 3S                  -5.741271863 Ry

        2.ATOM      Fe2                   5 CORE STATES
:1S 002: 1S                -513.203301380 Ry
:2S 002: 2S                 -59.110077083 Ry
:2PP002: 2P*                -50.815188166 Ry
:2P 002: 2P                 -49.897508004 Ry
:3S 002: 3S                  -5.741271917 Ry

        3.ATOM      Rh1                  10 CORE STATES
:1S 003: 1S               -1691.514906278 Ry
:2S 003: 2S                -244.404086409 Ry
:2PP003: 2P*               -226.214887329 Ry
:2P 003: 2P                -215.585419612 Ry
:3S 003: 3S                 -42.924979188 Ry
:3PP003: 3P*                -35.807290246 Ry
:3P 003: 3P                 -33.978209956 Ry
:3DD003: 3D*                -21.381923047 Ry
:3D 003: 3D                 -21.021131024 Ry
:4S 003: 4S                  -5.124954339 Ry
:CINT001 Core Integral Atom   1   11.999274
:CINT002 Core Integral Atom   2   11.999274
:CINT003 Core Integral Atom   3   29.997466

       DENSITY AT NUCLEUS
        JATOM        VALENCE       SEMI-CORE          CORE           TOTAL
:RTO001:   1        6.416603        0.000000    15303.667445    15310.084048
:RTO002:   2        6.416603        0.000000    15303.667445    15310.084048
:RTO003:   3       23.161498        0.000000   155315.752151   155338.913649
     
       CHARGES OF NEW CHARGE DENSITY
:NTO   : INTERSTITIAL CHARGE =     4.440709
:NPC   : PW Pseudocharge     =    10.658689
:NTO001: CHARGE SPHERE  1    =    25.323115
:NTO002: CHARGE SPHERE  2    =    25.323119
:NTO003: CHARGE SPHERE  3    =    43.453236

:NEC01: NUCLEAR AND ELECTRONIC CHARGE    142.00000   141.99341
     
       CHARGES OF OLD CHARGE DENSITY
:OTO   : INTERSTITIAL CHARGE =     4.341117
:OPC   : PW Pseudocharge     =    11.627484
:OTO001: CHARGE SPHERE  1    =    25.246068
:OTO002: CHARGE SPHERE  2    =    25.246068
:OTO003: CHARGE SPHERE  3    =    43.583374

:NEC02: NUCLEAR AND ELECTRONIC CHARGE    142.00000   142.00000
     
       CONVERGENCE TEST
:DTO001: DIFFERENCE IN SPHERE  1 =  0.2507250
:DTO002: DIFFERENCE IN SPHERE  2 =  0.2507286
:DTO003: DIFFERENCE IN SPHERE  3 =  0.1444931

:DIS  :  CHARGE DISTANCE       ( 0.2507286 for atom    2 spin 1)      0.1976100
 PW Mixed is           49
 
******************************************************
* MULTISECANT MIXING VER9 RELEASE 10.4.0              *
* Standard Mode with controls                        *
* Fixed density scale                                *
* Regularization       1.000E-04                     *
* Trust Upper Limit    5.000E+00                     *
* Max Number of Memory Steps    8                    *
******************************************************
 
:PWTMP   1.1765E+02  4.5917E+02  3.5807E+02
:PLANE:  PW TOTAL      1.7823 DISTAN   2.04E-01  1.15E+01 %
:CHARG:  CLM/ATOM    299.8662 DISTAN   1.42E-01  4.75E-02 %
 
Step History
        DMIX         DMIXT        Red     Pred      Trust     Lambda    MagRel    MagAbs     Beta
  1   3.5000E-02   3.5000E-02 -1.00E+00  1.00E+00 -1.00E+01  1.00E+00  3.50E-02  3.50E-02  1.00E+00
  2   2.5000E-02   2.5000E-02  5.93E-01  1.00E+00 -1.00E+01  1.00E+00  2.50E-02  5.93E-02  1.00E+00
  3   3.7463E-02   3.7463E-02  9.42E-01  1.00E+00 -1.00E+01  1.70E-01  3.75E-02  5.27E-02  1.00E+00
  4   5.0962E-02   5.0962E-02  8.80E-01  8.92E-01  2.53E-01  1.53E+00  7.07E-02  9.36E-02  8.73E-01
  5   1.2741E-01   9.2160E-02  7.34E-01  5.94E-01  3.77E-01  1.92E+00  1.12E-01  1.31E-01  1.00E+00
  6   1.0003E-01   9.9885E-02 -1.00E+00  3.97E-01  5.02E-01  1.00E+00  3.25E-01  2.77E-01  1.00E+00
:JACOBIANS    9.993E-01   2.806E-01
  
:NORMS:  1/Froebius, Min, Max, Used   0.4798E+00  0.3706E+00  0.9978E+00  0.4798E+00
:INFO :  Number of Memory Steps    5 Skipping    0
:INFO :  SLambda=    2.2833597954  Max    2.2833597954
[...]
  5   1.2741E-01   9.2160E-02  7.34E-01  5.94E-01  3.77E-01  1.92E+00  1.12E-01  1.31E-01  1.00E+00
  6   1.0003E-01   9.9885E-02  5.54E-01  3.97E-01  5.02E-01  2.28E+00  3.25E-01  2.77E-01  1.00E+00
  7   9.7274E-02   9.7274E-02  6.04E-01  5.16E-01  6.69E-01  1.90E+00  2.07E-01  9.81E-02  1.00E+00
  8   2.4319E-01   2.4319E-01  6.65E-01  2.99E-01  1.33E+00  1.94E+00  5.87E-01  1.68E-01  1.00E+00
  9   1.2795E-01   1.2795E-01  3.86E-01  3.08E-01  3.39E+00  1.77E+00  6.62E-02  1.26E-02  9.94E-01
 10   8.8959E-02   8.8959E-02  2.92E+00  8.26E-01  4.52E+00  2.53E+00  5.84E-02  4.29E-03  7.95E-01
 11   1.7603E-01   1.7603E-01  5.76E-01  1.97E-01  1.18E+00  1.69E+00  1.60E-01  3.42E-02  9.94E-01
 12   1.9207E-01   1.9207E-01 -1.00E+00  1.05E-01  1.66E+00  1.00E+00  9.39E-02  1.16E-02  1.00E+00
:JACOBIANS    1.132E+00   1.669E+00
  
:NORMS:  1/Froebius, Min, Max, Used   0.4718E+00  0.3670E+00  0.9353E+00  0.5839E+00
:INFO :  Number of Memory Steps    8 Skipping    3
:INFO :  SLambda=    2.5373587262  Max    2.5373587262
:PREDicted Charge, CTotal, PW Trust    1.881E-03   4.989E-03   2.766E-03
:PREDicted DMix, Beta, BLim   2.3036E-01  9.6797E-01  2.6798E-01

Eigenvalues, unscaled except for SY+YY
   #     SY Real        SY Imag          SS             YY         SY+YY Real      SY+YY Imag
   1   1.325133E+00   0.000000E+00   1.256828E+00   3.686871E+00   5.655260E+00   0.000000E+00
   2   4.573360E-01   6.853067E-02   4.049583E-01   2.027691E+00   4.193938E+00   0.000000E+00
   3   4.573360E-01  -6.853067E-02   1.153367E-01   1.129300E+00   1.983323E+00   0.000000E+00
   4   5.444547E-02   0.000000E+00   3.045086E-03   8.218308E-01   8.499209E-01   0.000000E+00
   5   1.172572E-02   0.000000E+00   2.956566E-04   3.297404E-01   1.164223E+00   0.000000E+00
   6   7.944329E-04   0.000000E+00   1.419958E-04   3.761932E-03   5.618356E-03   0.000000E+00
   7   1.203052E-04   0.000000E+00   1.099535E-04   5.423354E-04   1.048069E-03   0.000000E+00
   8   2.109897E-04   0.000000E+00   3.619621E-05   2.627375E-04   6.137815E-04   0.000000E+00
 
:INFO :  Singular value  5.741E+00 Weight  1.000E+00 Projection -3.651E-03
:INFO :  Singular value  4.303E+00 Weight  1.000E+00 Projection  3.911E-03
:INFO :  Singular value  1.924E+00 Weight  1.000E+00 Projection -2.668E-04
:INFO :  Singular value  1.164E+00 Weight  1.000E+00 Projection -2.222E-03
:INFO :  Singular value  8.413E-01 Weight  1.000E+00 Projection  5.989E-03
:INFO :  Singular value  5.622E-03 Weight  9.957E-01 Projection -8.379E-02
:INFO :  Singular value  1.048E-03 Weight  8.899E-01 Projection -9.239E-02
:INFO :  Singular value  6.134E-04 Weight  7.346E-01 Projection -3.773E-01
:RANK :  ACTIVE   7.62/8  =  95.25 % ; YY RANK   7.01/8  =  87.64 %
 
:DLIM :  Beta Active  9.760E-01
:BLIM :  VZERO Control Off
:TRUST:  Step 2.21E+00  Charge 6.78E-02 (e) CTO  1.34E-01 (e) PW  1.77E-01 (e)
:DIRM :  MEMORY  8/8  SCALE   1.000 RED  0.13 PRED  0.11 NEXT  0.31 BETA  0.98
:TRAVE:  Charge 4.85E-03 (e) CTO  7.64E-03 (e) PW  8.94E-03 (e)
:DIRP :  |MSR1|= 1.831E-03 |PRATT|= 2.689E-03 ANGLE=   8.0 DEGREES
:DIRQ :  |MSR1|= 4.890E-03 |PRATT|= 1.540E-02 ANGLE=  35.1 DEGREES
:DIRT :  |MSR1|= 5.222E-03 |PRATT|= 1.564E-02 ANGLE=  35.5 DEGREES
:MIX  :   MSE1   REGULARIZATION:  3.69E-04 GREED: 0.20004  Newton 1.00  0.3339                
     
       CHARGES OF MIXED CHARGE DENSITY
:CTO   : INTERSTITIAL CHARGE =     4.448617
:CPC   : PW Pseudocharge     =    10.696130
:CTO001: CHARGE SPHERE  1    =    25.195671
:CTO002: CHARGE SPHERE  2    =    25.195551
:CTO003: CHARGE SPHERE  3    =    43.580081

:NEC03: NUCLEAR AND ELECTRONIC CHARGE    142.00000   142.00000

PW CHANGE     H    K    L      Current       Change    Residue
:PTO001:      0    0    0  4.22954504E-02  1.290E-05  2.086E-05
:PTO002:     -1   -1   -1 -6.90919795E-08  3.974E-07 -2.783E-06
:PTO003:      0    0   -2 -1.32327143E-02 -2.078E-05 -4.497E-05
:PTO004:      0   -2   -2 -4.02431960E-04  3.081E-05  6.305E-05
:PTO005:     -1   -1   -3 -1.49157370E-07  1.436E-07  3.113E-07
:PTO006:     -2   -2   -2  4.33184342E-03  5.700E-07 -7.032E-08
:PTO007:      0    0   -4 -1.17592874E-02 -4.410E-05 -6.461E-05
:PTO008:     -1   -3   -3 -3.56863027E-07  2.991E-07  5.601E-06
:PTO009:      0   -2   -4  1.18485297E-02  5.678E-05  9.340E-05
:PTO010:     -2   -2   -4 -2.01501322E-02 -1.648E-04 -2.239E-04
:PTO011:     -3   -3   -3 -2.17504060E-07  2.695E-07  1.482E-06
:PTO012:     -1   -1   -5  3.13296266E-07 -4.846E-07 -1.258E-06

:ENE  : ********** TOTAL ENERGY IN Ry =       -24232.07324812

 Flat Integration
 New Mode for Coulomb Integral
 Consistent 3/8+Simpson combinations
 Extension of core to zero
 LDM version in phi
 Fifth-order quadrature in outwin


            ---------
:ITE013: 13. ITERATION
            ---------

:NATO :    3 INDEPENDENT AND    4 TOTAL ATOMS IN UNITCELL
       SUBSTANCE: FeRh                                                        

       LATTICE                      = F   
:POT  : POTENTIAL OPTION EX_PBE EC_PBE VX_PBE VC_PBE
:LAT  : LATTICE CONSTANTS= 11.27222 11.27222 11.27222    1.571    1.571    1.571
:VOL  : UNIT CELL VOLUME =     358.07036
       MODE OF CALCULATION IS       = RELA
       NON-SPINPOLARIZED CALCULATION
:IFFT  : FFT-parameters:   90   90   90 Factor: 2.00


   CONVERGENCE PARAMETER FOR PSEUDOCHARGE: NCON=  9
   MAXIMAL VALUE OF RMT(JATOM)*ABSK(NKK) : RK  =29.05063


:VKCOUL :  VK-COUL convergence: 0.789E-07
       ATOMNUMBER=  1 Fe1        VCOUL-ZERO =  0.61896E+00
       ATOMNUMBER=  2 Fe2        VCOUL-ZERO =  0.61894E+00
       ATOMNUMBER=  3 Rh1        VCOUL-ZERO =  0.57215E+00
:FIT001: LUSE= 13 SIGMA OF V-XC FIT FOR ATOM  1  0.2163719E-02
:FIT001: LUSE= 13 SIGMA OF V-XC FIT FOR ATOM  1  0.2163719E-02
:FIT002: LUSE= 13 SIGMA OF V-XC FIT FOR ATOM  2  0.2163528E-02
:FIT002: LUSE= 13 SIGMA OF V-XC FIT FOR ATOM  2  0.2163528E-02
:FIT003: LUSE= 13 SIGMA OF V-XC FIT FOR ATOM  3  0.9916198E-03
:FIT003: LUSE= 13 SIGMA OF V-XC FIT FOR ATOM  3  0.9916198E-03
:DEN  : DENSITY INTEGRAL  =         -9853.50643144   (Ry)
       ELS_POTENTIAL_AT Z=0 and Z=0.5:  -0.16154  -0.16154
       ELS_POTENTIAL_AT Y=0 and Y=0.5:   0.00000   0.00000
:VZERO:v0,v0c,v0x  -0.80651  -0.16154  -0.64497 v5,v5c,v5x  -0.80651  -0.16154  -0.64497
:VZERY:v0,v0c,v0x  -0.78938   0.00000  -0.78938 v5,v5c,v5x  -0.78938   0.00000  -0.78938
:VZERX:v0,v0c,v0x  -0.78938   0.00000  -0.78938 v5,v5c,v5x  -0.78938   0.00000  -0.78938
:LMAX-WF:   10   Non-Spherical LMAX:   4

          ATOMIC SPHERE DEPENDENT PARAMETERS FOR ATOM  Fe1       
:e__0001: OVERALL ENERGY PARAMETER IS    0.4167
          OVERALL BASIS SET ON ATOM IS LAPW
:E1_0001: E( 1)=    0.4167
             APW+lo
:E1_0001: E( 1)=   -3.2815   E(BOTTOM)=   -3.312   E(TOP)=   -3.251  1  2   167
             LOCAL ORBITAL
:E2_0001: E( 2)=    0.5234   E(BOTTOM)=    0.296   E(TOP)=    0.751  0  1   126
             APW+lo
:E0_0001: E( 0)=    0.4167
             APW+lo

          ATOMIC SPHERE DEPENDENT PARAMETERS FOR ATOM  Fe2       
:e__0002: OVERALL ENERGY PARAMETER IS    0.4167
          OVERALL BASIS SET ON ATOM IS LAPW
:E1_0002: E( 1)=    0.4167
             APW+lo
:E1_0002: E( 1)=   -3.2817   E(BOTTOM)=   -3.313   E(TOP)=   -3.251  1  2   170
             LOCAL ORBITAL
:E2_0002: E( 2)=    0.5233   E(BOTTOM)=    0.296   E(TOP)=    0.751  0  1   123
             APW+lo
:E0_0002: E( 0)=    0.4167
             APW+lo

          ATOMIC SPHERE DEPENDENT PARAMETERS FOR ATOM  Rh1       
:e__0003: OVERALL ENERGY PARAMETER IS    0.4167
          OVERALL BASIS SET ON ATOM IS LAPW
:E1_0003: E( 1)=    0.4167
             APW+lo
:E1_0003: E( 1)=   -2.8225   E(BOTTOM)=   -2.915   E(TOP)=   -2.730  2  3   146
             LOCAL ORBITAL
:E2_0003: E( 2)=    0.4714   E(BOTTOM)=    0.042   E(TOP)=    0.901  1  2   136
             APW+lo
:E0_0003: E( 0)=    0.4167
             APW+lo

       K=   0.00000   0.00000   0.00000            1
:RKM  : MATRIX SIZE   185LOs:  48  RKM= 6.64  WEIGHT= 1.00  PGR:    
       EIGENVALUES ARE:
:EIG00001:      -3.2759275   -3.2759275   -3.2759275   -3.2743106   -3.2743106
:EIG00006:      -3.2743106   -2.8064309   -2.8064309   -2.8064309   -2.7995541
:EIG00011:      -2.7995541   -2.7995541    0.0344415    0.2485527    0.2485527
:EIG00016:       0.3123074    0.3123074    0.3123074    0.4567998    0.4567998
:EIG00021:       0.4567998    0.4603542    0.4603542    0.4603542    0.6019844
:EIG00026:       0.6019844    0.6192700    0.6192700    0.6295232    0.6295232
:EIG00031:       0.6812622    0.6812622    0.6812622    1.2230364    1.2532708
:EIG00036:       1.2532708    1.2532708    1.2877561    1.2877561    1.2877561
:EIG00041:       1.3608807    1.3608807    1.3608807    1.4298753    1.9173794
:EIG00046:       1.9173794    2.0239633
 
       ********************************************************

:KPT   :      NUMBER OF K-POINTS:   165
:GAP (global)   :    0.0    Ry =     0.0   eV (metal)
         Bandranges (emin - emax) and occupancy:
:BAN00022:  22    0.393336    0.511919  2.00000000
:BAN00023:  23    0.393336    0.539369  2.00000000
:BAN00024:  24    0.409183    0.566025  2.00000000
:BAN00025:  25    0.538146    0.601984  2.00000000
:BAN00026:  26    0.554498    0.609029  2.00000000
:BAN00027:  27    0.564565    0.619270  1.99857953
:BAN00028:  28    0.576035    0.619270  1.96889654
:BAN00029:  29    0.590982    0.644602  1.52554295
:BAN00030:  30    0.604736    0.657832  0.49433365
:BAN00031:  31    0.612202    0.681262  0.01265404
:BAN00032:  32    0.625695    0.685177 -0.00000671
:BAN00033:  33    0.632871    0.701697  0.00000000
:BAN00034:  34    0.672079    1.223036  0.00000000
:BAN00035:  35    0.706570    1.253271  0.00000000
:BAN00036:  36    0.716212    1.253271  0.00000000
:BAN00037:  37    1.198189    1.413308  0.00000000
        Energy to separate low and high energystates:   -0.01556


:NOE  : NUMBER OF ELECTRONS          =   58.000

:FER  : F E R M I - ENERGY(TETRAH.M.)=   0.6159398420
:GMA  : POTENTIAL AND CHARGE CUT-OFF  12.00 Ry**.5

:POS001: ATOM    1 X,Y,Z = 0.00000 0.00000 0.00000  MULT= 1  ZZ= 26.000  Fe1       

       LMMAX  5
       LM=   0 0  4 0  4 4  6 0  6 4

:CHA001: TOTAL VALENCE CHARGE INSIDE SPHERE   1 =  13.2002    (RMT=  2.4300 )
:PCS001: PARTIAL CHARGES SPHERE =  1 S,P,D,F,      D-EG,D-T2G 
:QTL001: 0.4424 6.4398 6.2529 0.0470 0.0000 0.0000 0.0000 2.4525 3.8004 0.0000 0.0000 0.0000
        Q-s-low E-s-low   Q-p-low E-p-low   Q-d-low E-d-low   Q-f-low E-f-low
:EPL001:  0.0009 -2.8114    5.9907 -3.2748    0.0024 -2.8074    0.0010 -2.8082
        Q-s-hi  E-s-hi    Q-p-hi  E-p-hi    Q-d-hi  E-d-hi    Q-f-hi  E-f-hi 
:EPH001:  0.4414  0.2558    0.4490  0.3840    6.2506  0.5021    0.0459  0.4411

:POS002: ATOM    2 X,Y,Z = 0.50000 0.00000 0.00000  MULT= 1  ZZ= 26.000  Fe2       

       LMMAX  5
       LM=   0 0  4 0  4 4  6 0  6 4

:CHA002: TOTAL VALENCE CHARGE INSIDE SPHERE   2 =  13.2122    (RMT=  2.4300 )
:PCS002: PARTIAL CHARGES SPHERE =  2 S,P,D,F,      D-EG,D-T2G 
:QTL002: 0.4424 6.4398 6.2649 0.0470 0.0000 0.0000 0.0000 2.4608 3.8041 0.0000 0.0000 0.0000
        Q-s-low E-s-low   Q-p-low E-p-low   Q-d-low E-d-low   Q-f-low E-f-low
:EPL002:  0.0009 -2.8114    5.9907 -3.2750    0.0024 -2.8074    0.0010 -2.8082
        Q-s-hi  E-s-hi    Q-p-hi  E-p-hi    Q-d-hi  E-d-hi    Q-f-hi  E-f-hi 
:EPH002:  0.4414  0.2558    0.4491  0.3840    6.2625  0.5022    0.0459  0.4411

:POS003: ATOM    3 X,Y,Z = 0.25000 0.25000 0.25000  MULT= 2  ZZ= 45.000  Rh1       

       LMMAX  6
       LM=   0 0  4 0  4 4  6 0  6 4 -3 2

:CHA003: TOTAL VALENCE CHARGE INSIDE SPHERE   3 =  13.5740    (RMT=  2.4300 )
:PCS003: PARTIAL CHARGES SPHERE =  3 S,P,D,F,      D-EG,D-T2G 
:QTL003: 0.3584 6.2949 6.8707 0.0392 0.0000 0.0000 0.0000 2.7298 4.1409 0.0000 0.0000 0.0000
        Q-s-low E-s-low   Q-p-low E-p-low   Q-d-low E-d-low   Q-f-low E-f-low
:EPL003:  0.0003 -3.2090    5.9621 -2.8036    0.0007 -3.2180    0.0004 -3.2142
        Q-s-hi  E-s-hi    Q-p-hi  E-p-hi    Q-d-hi  E-d-hi    Q-f-hi  E-f-hi 
:EPH003:  0.3581  0.2728    0.3327  0.4150    6.8700  0.4162    0.0389  0.4882

:CHA  : TOTAL VALENCE CHARGE INSIDE UNIT CELL =      58.000000

:SUM  : SUM OF EIGENVALUES =         -58.215574266


        1.ATOM      Fe1                   5 CORE STATES
:1S 001: 1S                -513.178394756 Ry
:2S 001: 2S                 -59.102093456 Ry
:2PP001: 2P*                -50.804432569 Ry
:2P 001: 2P                 -49.886998678 Ry
:3S 001: 3S                  -5.768868710 Ry

        2.ATOM      Fe2                   5 CORE STATES
:1S 002: 1S                -513.178627120 Ry
:2S 002: 2S                 -59.102318353 Ry
:2PP002: 2P*                -50.804659428 Ry
:2P 002: 2P                 -49.887225344 Ry
:3S 002: 3S                  -5.769027943 Ry

        3.ATOM      Rh1                  10 CORE STATES
:1S 003: 1S               -1691.539818581 Ry
:2S 003: 2S                -244.435144747 Ry
:2PP003: 2P*               -226.244948775 Ry
:2P 003: 2P                -215.615701785 Ry
:3S 003: 3S                 -42.961487995 Ry
:3PP003: 3P*                -35.843583926 Ry
:3P 003: 3P                 -34.014706942 Ry
:3DD003: 3D*                -21.418052293 Ry
:3D 003: 3D                 -21.057325041 Ry
:4S 003: 4S                  -5.165502570 Ry
:CINT001 Core Integral Atom   1   11.999269
:CINT002 Core Integral Atom   2   11.999269
:CINT003 Core Integral Atom   3   29.997494

       DENSITY AT NUCLEUS
        JATOM        VALENCE       SEMI-CORE          CORE           TOTAL
:RTO001:   1        6.434247        0.000000    15302.964377    15309.398624
:RTO002:   2        6.434196        0.000000    15302.965898    15309.400094
:RTO003:   3       23.208622        0.000000   155315.534378   155338.743001
     
       CHARGES OF NEW CHARGE DENSITY
:NTO   : INTERSTITIAL CHARGE =     4.439591
:NPC   : PW Pseudocharge     =    10.681635
:NTO001: CHARGE SPHERE  1    =    25.199471
:NTO002: CHARGE SPHERE  2    =    25.211439
:NTO003: CHARGE SPHERE  3    =    43.571481

:NEC01: NUCLEAR AND ELECTRONIC CHARGE    142.00000   141.99346
     
       CHARGES OF OLD CHARGE DENSITY
:OTO   : INTERSTITIAL CHARGE =     4.448617
:OPC   : PW Pseudocharge     =    10.696130
:OTO001: CHARGE SPHERE  1    =    25.195671
:OTO002: CHARGE SPHERE  2    =    25.195551
:OTO003: CHARGE SPHERE  3    =    43.580081

:NEC02: NUCLEAR AND ELECTRONIC CHARGE    142.00000   142.00000
     
       CONVERGENCE TEST
:DTO001: DIFFERENCE IN SPHERE  1 =  0.0041165
:DTO002: DIFFERENCE IN SPHERE  2 =  0.0179671
:DTO003: DIFFERENCE IN SPHERE  3 =  0.0081476

:DIS  :  CHARGE DISTANCE       ( 0.0179671 for atom    2 spin 1)      0.0095947
 PW Mixed is           49
 
******************************************************
* MULTISECANT MIXING VER9 RELEASE 10.4.0              *
* Standard Mode with controls                        *
* Fixed density scale                                *
* Regularization       1.000E-04                     *
* Trust Upper Limit    5.000E+00                     *
* Max Number of Memory Steps    8                    *
******************************************************
 
:PWTMP   1.1765E+02  4.5917E+02  3.5807E+02
:PLANE:  PW TOTAL      1.6613 DISTAN   9.14E-04  5.50E-02 %
:CHARG:  CLM/ATOM    299.8732 DISTAN   7.86E-03  2.62E-03 %
 
Step History
        DMIX         DMIXT        Red     Pred      Trust     Lambda    MagRel    MagAbs     Beta
  5   1.2741E-01   9.2160E-02  7.34E-01  5.94E-01  3.77E-01  1.92E+00  1.12E-01  1.31E-01  1.00E+00
  6   1.0003E-01   9.9885E-02  5.54E-01  3.97E-01  5.02E-01  2.28E+00  3.25E-01  2.77E-01  1.00E+00
  7   9.7274E-02   9.7274E-02  6.04E-01  5.16E-01  6.69E-01  1.90E+00  2.07E-01  9.81E-02  1.00E+00
  8   2.4319E-01   2.4319E-01  6.65E-01  2.99E-01  1.33E+00  1.94E+00  5.87E-01  1.68E-01  1.00E+00
  9   1.2795E-01   1.2795E-01  3.86E-01  3.08E-01  3.39E+00  1.77E+00  6.62E-02  1.26E-02  9.94E-01
 10   8.8959E-02   8.8959E-02  2.92E+00  8.26E-01  4.52E+00  2.53E+00  5.84E-02  4.29E-03  7.95E-01
 11   1.7603E-01   1.7603E-01  5.76E-01  1.97E-01  1.18E+00  1.69E+00  1.60E-01  3.42E-02  9.94E-01
 12   1.9207E-01   1.9207E-01  1.27E-01  1.05E-01  1.66E+00  2.54E+00  9.39E-02  1.16E-02  1.00E+00
 13   2.0004E-01   2.0004E-01 -1.00E+00  3.11E-01  2.21E+00  1.00E+00  3.34E-01  5.22E-03  9.76E-01
:JACOBIANS    9.196E-01   1.998E+00
  
:NORMS:  1/Froebius, Min, Max, Used   0.4583E+00  0.3674E+00  0.9309E+00  0.5250E+00
:INFO :  Number of Memory Steps    8 Skipping    4
:INFO :  SLambda=    0.7516450530  Max    2.7219786644
:PREDicted Charge, CTotal, PW Trust    1.647E-03   3.668E-03   2.238E-03
:PREDicted DMix, Beta, BLim   2.7941E-01  1.2585E+00  1.2418E+00

Eigenvalues, unscaled except for SY+YY
   #     SY Real        SY Imag          SS             YY         SY+YY Real      SY+YY Imag
   1   1.126235E+00   0.000000E+00   1.106291E+00   4.014278E+00   4.323774E+00   0.000000E+00
   2   5.701916E-01   0.000000E+00   4.767853E-01   1.620674E+00   2.048474E+00   0.000000E+00
   3   2.422263E-01   0.000000E+00   6.856665E-02   1.180009E+00   1.527265E+00   0.000000E+00
   4   1.009967E-01   0.000000E+00   2.505207E-02   6.506076E-01   8.020743E-01   0.000000E+00
   5   2.197395E-02   0.000000E+00   3.180476E-03   4.961742E-01   8.020743E-01   0.000000E+00
   6   1.382147E-02   0.000000E+00   2.923373E-04   3.534433E-02   5.343344E-02   0.000000E+00
   7   6.515164E-04   0.000000E+00   1.401359E-04   2.807653E-03   3.291160E-03   0.000000E+00
   8   2.393641E-05   0.000000E+00   6.258994E-06   1.056405E-04   1.199798E-04   0.000000E+00
 
:INFO :  Singular value  4.343E+00 Weight  1.000E+00 Projection -9.004E-03
:INFO :  Singular value  2.047E+00 Weight  1.000E+00 Projection -4.606E-03
:INFO :  Singular value  1.527E+00 Weight  1.000E+00 Projection -9.909E-03
:INFO :  Singular value  8.395E-01 Weight  1.000E+00 Projection  1.910E-03
:INFO :  Singular value  7.638E-01 Weight  1.000E+00 Projection  4.482E-04
:INFO :  Singular value  5.343E-02 Weight  9.999E-01 Projection  2.280E-02
:INFO :  Singular value  3.291E-03 Weight  9.853E-01 Projection -1.966E-03
:INFO :  Singular value  1.200E-04 Weight  8.200E-02 Projection  3.410E-04
:RANK :  ACTIVE   7.07/8  =  88.34 % ; YY RANK   7.04/8  =  88.06 %
 
:BLIM :  VZERO Control Off
:TRUST:  Step 1.66E+00  Charge 4.93E-02 (e) CTO  9.77E-02 (e) PW  1.29E-01 (e)
:DIRM :  MEMORY  8/8  SCALE   1.000 RED  1.51 PRED  0.31 NEXT  0.11 
:TRAVE:  Charge 2.62E-03 (e) CTO  4.50E-03 (e) PW  4.65E-03 (e)
:DIRP :  |MSR1|= 6.471E-04 |PRATT|= 9.141E-04 ANGLE=  53.7 DEGREES
:DIRQ :  |MSR1|= 2.342E-03 |PRATT|= 2.358E-02 ANGLE=  69.6 DEGREES
:DIRT :  |MSR1|= 2.430E-03 |PRATT|= 2.360E-02 ANGLE=  70.0 DEGREES
:MIX  :   MSD1   REGULARIZATION:  4.01E-04 GREED: 0.23215  Newton 1.00  0.1030                
     
       CHARGES OF MIXED CHARGE DENSITY
:CTO   : INTERSTITIAL CHARGE =     4.447259
:CPC   : PW Pseudocharge     =    10.698554
:CTO001: CHARGE SPHERE  1    =    25.195968
:CTO002: CHARGE SPHERE  2    =    25.195943
:CTO003: CHARGE SPHERE  3    =    43.580415

:NEC03: NUCLEAR AND ELECTRONIC CHARGE    142.00000   142.00000

PW CHANGE     H    K    L      Current       Change    Residue
:PTO001:      0    0    0  4.22984267E-02  2.976E-06 -3.505E-06
:PTO002:     -1   -1   -1  1.76558210E-08  8.675E-08 -1.086E-05
:PTO003:      0    0   -2 -1.32406080E-02 -7.894E-06  2.568E-05
:PTO004:      0   -2   -2 -3.80184904E-04  2.225E-05  3.750E-05
:PTO005:     -1   -1   -3 -4.66217457E-08  1.025E-07  3.068E-07
:PTO006:     -2   -2   -2  4.32928324E-03 -2.560E-06 -1.774E-05
:PTO007:      0    0   -4 -1.17752562E-02 -1.597E-05 -2.082E-05
:PTO008:     -1   -3   -3  9.70242632E-09  3.666E-07  1.661E-05
:PTO009:      0   -2   -4  1.18699397E-02  2.141E-05  1.415E-06
:PTO010:     -2   -2   -4 -2.02042907E-02 -5.416E-05 -4.730E-05
:PTO011:     -3   -3   -3 -1.17276788E-08  2.058E-07  3.418E-06
:PTO012:     -1   -1   -5 -6.17313178E-09 -3.195E-07 -1.504E-06

:ENE  : ********** TOTAL ENERGY IN Ry =       -24232.07328149

