
:LABEL1: Calculations in /home/cmueller/wien/FZU/src/FeRh/AFM
:LABEL2: on cv036 at Tue Mar 11 04:45:36 PM CET 2025
:LABEL3: using WIEN2k_19.1 (Release 25/6/2019) in /home/cmueller/WIENROOT
:LABEL4: using the command: run_lapw
 Flat Integration
 New Mode for Coulomb Integral
 Consistent 3/8+Simpson combinations
 Extension of core to zero
 LDM version in phi
 Fifth-order quadrature in outwin


            ---------
:ITE001:  1. ITERATION
            ---------

:NATO :    3 INDEPENDENT AND    4 TOTAL ATOMS IN UNITCELL
       SUBSTANCE: FeRh                                                        

       LATTICE                      = F   
:POT  : POTENTIAL OPTION EX_PBE EC_PBE VX_PBE VC_PBE
:LAT  : LATTICE CONSTANTS= 11.27222 11.27222 11.27222    1.571    1.571    1.571
:VOL  : UNIT CELL VOLUME =     358.07036
       MODE OF CALCULATION IS       = RELA
       NON-SPINPOLARIZED CALCULATION
:IFFT  : FFT-parameters:   90   90   90 Factor: 2.00


   CONVERGENCE PARAMETER FOR PSEUDOCHARGE: NCON=  9
   MAXIMAL VALUE OF RMT(JATOM)*ABSK(NKK) : RK  =29.05063


:VKCOUL :  VK-COUL convergence: 0.126E-05
       ATOMNUMBER=  1 Fe1        VCOUL-ZERO =  0.65836E+00
       ATOMNUMBER=  2 Fe2        VCOUL-ZERO =  0.65836E+00
       ATOMNUMBER=  3 Rh1        VCOUL-ZERO =  0.62973E+00
:FIT001: LUSE= 13 SIGMA OF V-XC FIT FOR ATOM  1  0.5273943E-02
:FIT001: LUSE= 13 SIGMA OF V-XC FIT FOR ATOM  1  0.5273943E-02
:FIT002: LUSE= 13 SIGMA OF V-XC FIT FOR ATOM  2  0.5273943E-02
:FIT002: LUSE= 13 SIGMA OF V-XC FIT FOR ATOM  2  0.5273943E-02
:FIT003: LUSE= 13 SIGMA OF V-XC FIT FOR ATOM  3  0.1324738E-02
:FIT003: LUSE= 13 SIGMA OF V-XC FIT FOR ATOM  3  0.1324738E-02
:DEN  : DENSITY INTEGRAL  =         -9889.77809320   (Ry)
       ELS_POTENTIAL_AT Z=0 and Z=0.5:  -0.23886  -0.23886
       ELS_POTENTIAL_AT Y=0 and Y=0.5:   0.00000   0.00000
:VZERO:v0,v0c,v0x  -0.98015  -0.23886  -0.74129 v5,v5c,v5x  -0.98015  -0.23886  -0.74129
:VZERY:v0,v0c,v0x  -0.85926   0.00000  -0.85926 v5,v5c,v5x  -0.85926   0.00000  -0.85926
:VZERX:v0,v0c,v0x  -0.85926   0.00000  -0.85926 v5,v5c,v5x  -0.85926   0.00000  -0.85926
:LMAX-WF:   10   Non-Spherical LMAX:   4

          ATOMIC SPHERE DEPENDENT PARAMETERS FOR ATOM  Fe1       
:e__0001: OVERALL ENERGY PARAMETER IS    0.3000
          OVERALL BASIS SET ON ATOM IS LAPW
:E1_0001: E( 1)=    0.3000
             APW+lo
:E1_0001: E( 1)=   -3.0753   E(BOTTOM)=   -3.109   E(TOP)=   -3.042  1  2   186
             LOCAL ORBITAL
:E2_0001: E( 2)=    0.7000   E(BOTTOM)=    0.450   E(TOP)=    0.950  0  1   138
             APW+lo
:E0_0001: E( 0)=    0.3000
             APW+lo

          ATOMIC SPHERE DEPENDENT PARAMETERS FOR ATOM  Fe2       
:e__0002: OVERALL ENERGY PARAMETER IS    0.3000
          OVERALL BASIS SET ON ATOM IS LAPW
:E1_0002: E( 1)=    0.3000
             APW+lo
:E1_0002: E( 1)=   -3.0753   E(BOTTOM)=   -3.109   E(TOP)=   -3.042  1  2   168
             LOCAL ORBITAL
:E2_0002: E( 2)=    0.7000   E(BOTTOM)=    0.450   E(TOP)=    0.950  0  1   138
             APW+lo
:E0_0002: E( 0)=    0.3000
             APW+lo

          ATOMIC SPHERE DEPENDENT PARAMETERS FOR ATOM  Rh1       
:e__0003: OVERALL ENERGY PARAMETER IS    0.3000
          OVERALL BASIS SET ON ATOM IS LAPW
:E1_0003: E( 1)=    0.3000
             APW+lo
:E1_0003: E( 1)=   -2.5776   E(BOTTOM)=   -2.678   E(TOP)=   -2.478  2  3   175
             LOCAL ORBITAL
:E2_0003: E( 2)=    0.3000   E(BOTTOM)=    0.218   E(TOP)= -200.000  1 -1    94
             APW+lo
:E0_0003: E( 0)=    0.3000
             APW+lo

       K=   0.00000   0.00000   0.00000            1
:RKM  : MATRIX SIZE   185LOs:  48  RKM= 6.64  WEIGHT= 1.00  PGR:    
       EIGENVALUES ARE:
:EIG00001:      -3.0692391   -3.0692391   -3.0692391   -3.0672932   -3.0672932
:EIG00006:      -3.0672932   -2.5604539   -2.5604539   -2.5604539   -2.5525808
:EIG00011:      -2.5525808   -2.5525808    0.1348649    0.4049680    0.4049680
:EIG00016:       0.4721518    0.4721518    0.4721518    0.6178376    0.6178376
:EIG00021:       0.6178376    0.6432026    0.6432026    0.6432026    0.7910283
:EIG00026:       0.7910283    0.8158963    0.8158963    0.8314523    0.8314523
:EIG00031:       0.8841906    0.8841906    0.8841906    1.3267377    1.3964005
:EIG00036:       1.3964005    1.3964005    1.3971498    1.3971498    1.3971498
:EIG00041:       1.5207242    1.5207242    1.5207242    1.5592513
       ********************************************************

:KPT   :      NUMBER OF K-POINTS:    47
:GAP (global)   :    0.0    Ry =     0.0   eV (metal)
         Bandranges (emin - emax) and occupancy:
:BAN00022:  22    0.565072    0.690087  2.00000000
:BAN00023:  23    0.565072    0.719441  2.00000000
:BAN00024:  24    0.565072    0.730705  2.00000000
:BAN00025:  25    0.701405    0.792070  2.00000000
:BAN00026:  26    0.724192    0.806290  2.00000000
:BAN00027:  27    0.737405    0.815896  1.94423719
:BAN00028:  28    0.758487    0.815896  1.88499561
:BAN00029:  29    0.781575    0.831452  1.57140364
:BAN00030:  30    0.789212    0.841511  0.59105040
:BAN00031:  31    0.807824    0.884191  0.00820823
:BAN00032:  32    0.819058    0.884191  0.00010494
:BAN00033:  33    0.830228    0.902132  0.00000000
:BAN00034:  34    0.856683    1.326738  0.00000000
:BAN00035:  35    0.901071    1.396401  0.00000000
:BAN00036:  36    0.905444    1.396401  0.00000000
:BAN00037:  37    1.337021    1.528653  0.00000000
        Energy to separate low and high energystates:    0.08486


:NOE  : NUMBER OF ELECTRONS          =   58.000

:FER  : F E R M I - ENERGY(TETRAH.M.)=   0.8085006528
:GMA  : POTENTIAL AND CHARGE CUT-OFF  12.00 Ry**.5

:POS001: ATOM    1 X,Y,Z = 0.00000 0.00000 0.00000  MULT= 1  ZZ= 26.000  Fe1       

       LMMAX  5
       LM=   0 0  4 0  4 4  6 0  6 4

:CHA001: TOTAL VALENCE CHARGE INSIDE SPHERE   1 =  13.4064    (RMT=  2.4300 )
:PCS001: PARTIAL CHARGES SPHERE =  1 S,P,D,F,      D-EG,D-T2G 
:QTL001: 0.4809 6.5448 6.3065 0.0554 0.0000 0.0000 0.0000 2.4964 3.8101 0.0000 0.0000 0.0000
        Q-s-low E-s-low   Q-p-low E-p-low   Q-d-low E-d-low   Q-f-low E-f-low
:EPL001:  0.0011 -2.5659    5.9898 -3.0680    0.0027 -2.5615    0.0011 -2.5620
        Q-s-hi  E-s-hi    Q-p-hi  E-p-hi    Q-d-hi  E-d-hi    Q-f-hi  E-f-hi 
:EPH001:  0.4798  0.3805    0.5550  0.5412    6.3038  0.6742    0.0543  0.6240

:POS002: ATOM    2 X,Y,Z = 0.50000 0.00000 0.00000  MULT= 1  ZZ= 26.000  Fe2       

       LMMAX  5
       LM=   0 0  4 0  4 4  6 0  6 4

:CHA002: TOTAL VALENCE CHARGE INSIDE SPHERE   2 =  13.4064    (RMT=  2.4300 )
:PCS002: PARTIAL CHARGES SPHERE =  2 S,P,D,F,      D-EG,D-T2G 
:QTL002: 0.4809 6.5448 6.3065 0.0554 0.0000 0.0000 0.0000 2.4964 3.8101 0.0000 0.0000 0.0000
        Q-s-low E-s-low   Q-p-low E-p-low   Q-d-low E-d-low   Q-f-low E-f-low
:EPL002:  0.0011 -2.5659    5.9898 -3.0680    0.0027 -2.5615    0.0011 -2.5620
        Q-s-hi  E-s-hi    Q-p-hi  E-p-hi    Q-d-hi  E-d-hi    Q-f-hi  E-f-hi 
:EPH002:  0.4798  0.3805    0.5550  0.5412    6.3038  0.6742    0.0543  0.6240

:POS003: ATOM    3 X,Y,Z = 0.25000 0.25000 0.25000  MULT= 2  ZZ= 45.000  Rh1       

       LMMAX  6
       LM=   0 0  4 0  4 4  6 0  6 4 -3 2

:CHA003: TOTAL VALENCE CHARGE INSIDE SPHERE   3 =  13.0667    (RMT=  2.4300 )
:PCS003: PARTIAL CHARGES SPHERE =  3 S,P,D,F,      D-EG,D-T2G 
:QTL003: 0.3764 6.3587 6.2706 0.0484 0.0000 0.0000 0.0000 2.3678 3.9029 0.0000 0.0000 0.0000
        Q-s-low E-s-low   Q-p-low E-p-low   Q-d-low E-d-low   Q-f-low E-f-low
:EPL003:  0.0003 -2.9898    5.9572 -2.5571    0.0008 -3.0012    0.0004 -2.9982
        Q-s-hi  E-s-hi    Q-p-hi  E-p-hi    Q-d-hi  E-d-hi    Q-f-hi  E-f-hi 
:EPH003:  0.3761  0.3989    0.4014  0.5649    6.2698  0.5913    0.0481  0.6595

:CHA  : TOTAL VALENCE CHARGE INSIDE UNIT CELL =      58.000000

:SUM  : SUM OF EIGENVALUES =         -47.128477990



   QTL-B VALUE .EQ.    2.99036   in Band of energy    0.82615   ATOM=    3   L=  2
    Most likely no ghostbands, but adjust Energy-parameters for this ATOM and L


:WARN : QTL-B value eq.   2.99 in Band of energy   0.82615  ATOM=    3  L=  2
:WARN : You should change the E-parameter for this atom and L-value in case.in1 (or try the -in1new switch)

        1.ATOM      Fe1                   5 CORE STATES
:1S 001: 1S                -512.917891279 Ry
:2S 001: 2S                 -58.826866001 Ry
:2PP001: 2P*                -50.530155331 Ry
:2P 001: 2P                 -49.612674471 Ry
:3S 001: 3S                  -5.554477635 Ry

        2.ATOM      Fe2                   5 CORE STATES
:1S 002: 1S                -512.917891279 Ry
:2S 002: 2S                 -58.826866001 Ry
:2PP002: 2P*                -50.530155331 Ry
:2P 002: 2P                 -49.612674471 Ry
:3S 002: 3S                  -5.554477635 Ry

        3.ATOM      Rh1                  10 CORE STATES
:1S 003: 1S               -1691.217358224 Ry
:2S 003: 2S                -244.109674305 Ry
:2PP003: 2P*               -225.919343956 Ry
:2P 003: 2P                -215.290136273 Ry
:3S 003: 3S                 -42.651986868 Ry
:3PP003: 3P*                -35.533746793 Ry
:3P 003: 3P                 -33.705449364 Ry
:3DD003: 3D*                -21.106761817 Ry
:3D 003: 3D                 -20.746244980 Ry
:4S 003: 4S                  -4.904518397 Ry
:CINT001 Core Integral Atom   1   11.999197
:CINT002 Core Integral Atom   2   11.999197
:CINT003 Core Integral Atom   3   29.997225

       DENSITY AT NUCLEUS
        JATOM        VALENCE       SEMI-CORE          CORE           TOTAL
:RTO001:   1        7.118189        0.000000    15301.515563    15308.633752
:RTO002:   2        7.118189        0.000000    15301.515563    15308.633752
:RTO003:   3       24.630406        0.000000   155310.014376   155334.644782
     
       CHARGES OF NEW CHARGE DENSITY
:NTO   : INTERSTITIAL CHARGE =     5.053823
:NPC   : PW Pseudocharge     =    11.605741
:NTO001: CHARGE SPHERE  1    =    25.405604
:NTO002: CHARGE SPHERE  2    =    25.405604
:NTO003: CHARGE SPHERE  3    =    43.063875

:NEC01: NUCLEAR AND ELECTRONIC CHARGE    142.00000   141.99278
     
       CHARGES OF OLD CHARGE DENSITY
:OTO   : INTERSTITIAL CHARGE =     3.805005
:OPC   : PW Pseudocharge     =    18.875488
:OTO001: CHARGE SPHERE  1    =    25.256897
:OTO002: CHARGE SPHERE  2    =    25.256897
:OTO003: CHARGE SPHERE  3    =    43.842573

:NEC02: NUCLEAR AND ELECTRONIC CHARGE    142.00000   142.00395
     
       CONVERGENCE TEST
:DTO001: DIFFERENCE IN SPHERE  1 =  0.4677870
:DTO002: DIFFERENCE IN SPHERE  2 =  0.4677869
:DTO003: DIFFERENCE IN SPHERE  3 =  0.9115902

:DIS  :  CHARGE DISTANCE       ( 0.9115902 for atom    3 spin 1)      0.6896886
 PW Mixed is           49
 
******************************************************
* MULTISECANT MIXING VER9 RELEASE 10.4.0              *
* Standard Mode with controls                        *
* Fixed density scale                                *
* Regularization       1.000E-04                     *
* Trust Upper Limit    5.000E+00                     *
* Max Number of Memory Steps    8                    *
******************************************************
 
:PWTMP   1.1765E+02  4.5917E+02  3.5807E+02
:PLANE:  PW TOTAL      2.9797 DISTAN   1.86E+00  6.26E+01 %
:CHARG:  CLM/ATOM    299.8813 DISTAN   4.89E-01  1.63E-01 %
 
Step History
        DMIX         DMIXT        Red     Pred      Trust     Lambda    MagRel    MagAbs     Beta
  1   3.5000E-02   3.5000E-02 -1.00E+00  1.00E+00 -1.00E+01  1.00E+00  3.50E-02  3.50E-02  1.00E+00
:INFO :  Note, Pratt in use
:TRUST:  Step 3.75E-02  Charge 7.50E-02 (e) CTO  2.50E-01 (e) PW  3.50E-01 (e)
:DIRM :  MEMORY  0/ 8 SCALE   1.000
Performing Pseudo Compensation
Final Pseudo Compensation Rescaling     9.98223E-01
:MIX  :   PRATT  REGULARIZATION:  1.00E-04 GREED: 0.02500                  
     
       CHARGES OF MIXED CHARGE DENSITY
:CTO   : INTERSTITIAL CHARGE =     3.832559
:CPC   : PW Pseudocharge     =    13.602666
:CTO001: CHARGE SPHERE  1    =    25.260614
:CTO002: CHARGE SPHERE  2    =    25.260614
:CTO003: CHARGE SPHERE  3    =    43.823106

:NEC03: NUCLEAR AND ELECTRONIC CHARGE    142.00000   142.00000

PW CHANGE     H    K    L      Current       Change    Residue
:PTO001:      0    0    0  4.86921744E-02 -1.458E-02 -1.668E-02
:PTO003:      0    0   -2 -2.51360604E-02  2.290E-02  3.716E-02
:PTO004:      0   -2   -2  3.53869370E-02 -1.011E-01 -1.407E-01
:PTO006:     -2   -2   -2  1.33022260E-03  1.508E-02  1.717E-02
:PTO007:      0    0   -4 -1.19301442E-02 -2.654E-02 -2.713E-02
:PTO009:      0   -2   -4  1.80934588E-02  1.932E-02  1.126E-02
:PTO010:     -2   -2   -4 -4.40715475E-02 -4.914E-02 -2.485E-02
:PTO013:      0   -4   -4 -1.18552848E-02 -8.973E-03  1.795E-03
:PTO015:     -2   -4   -4  5.93991587E-03 -2.647E-04 -5.049E-03
:PTO016:      0    0   -6  1.49321301E-03 -5.793E-05 -9.330E-04
:PTO017:      0   -2   -6 -8.12351967E-03 -2.784E-03  5.768E-03
:PTO019:     -2   -2   -6  1.47236970E-03 -2.434E-03 -3.577E-03

:ENE  : *WARNING** TOTAL ENERGY IN Ry =       -24232.24576151

 Flat Integration
 New Mode for Coulomb Integral
 Consistent 3/8+Simpson combinations
 Extension of core to zero
 LDM version in phi
 Fifth-order quadrature in outwin


            ---------
:ITE002:  2. ITERATION
            ---------

:NATO :    3 INDEPENDENT AND    4 TOTAL ATOMS IN UNITCELL
       SUBSTANCE: FeRh                                                        

       LATTICE                      = F   
:POT  : POTENTIAL OPTION EX_PBE EC_PBE VX_PBE VC_PBE
:LAT  : LATTICE CONSTANTS= 11.27222 11.27222 11.27222    1.571    1.571    1.571
:VOL  : UNIT CELL VOLUME =     358.07036
       MODE OF CALCULATION IS       = RELA
       NON-SPINPOLARIZED CALCULATION
:IFFT  : FFT-parameters:   90   90   90 Factor: 2.00


   CONVERGENCE PARAMETER FOR PSEUDOCHARGE: NCON=  9
   MAXIMAL VALUE OF RMT(JATOM)*ABSK(NKK) : RK  =29.05063


:VKCOUL :  VK-COUL convergence: 0.476E-07
       ATOMNUMBER=  1 Fe1        VCOUL-ZERO =  0.63029E+00
       ATOMNUMBER=  2 Fe2        VCOUL-ZERO =  0.63029E+00
       ATOMNUMBER=  3 Rh1        VCOUL-ZERO =  0.59948E+00
:FIT001: LUSE= 13 SIGMA OF V-XC FIT FOR ATOM  1  0.5081890E-02
:FIT001: LUSE= 13 SIGMA OF V-XC FIT FOR ATOM  1  0.5081890E-02
:FIT002: LUSE= 13 SIGMA OF V-XC FIT FOR ATOM  2  0.5081890E-02
:FIT002: LUSE= 13 SIGMA OF V-XC FIT FOR ATOM  2  0.5081890E-02
:FIT003: LUSE= 13 SIGMA OF V-XC FIT FOR ATOM  3  0.1207742E-02
:FIT003: LUSE= 13 SIGMA OF V-XC FIT FOR ATOM  3  0.1207742E-02
:DEN  : DENSITY INTEGRAL  =         -9883.03431275   (Ry)
       ELS_POTENTIAL_AT Z=0 and Z=0.5:  -0.21765  -0.21765
       ELS_POTENTIAL_AT Y=0 and Y=0.5:   0.00000   0.00000
:VZERO:v0,v0c,v0x  -0.85108  -0.21765  -0.63343 v5,v5c,v5x  -0.85108  -0.21765  -0.63343
:VZERY:v0,v0c,v0x  -0.81405   0.00000  -0.81405 v5,v5c,v5x  -0.81405   0.00000  -0.81405
:VZERX:v0,v0c,v0x  -0.81405   0.00000  -0.81405 v5,v5c,v5x  -0.81405   0.00000  -0.81405
:LMAX-WF:   10   Non-Spherical LMAX:   4

          ATOMIC SPHERE DEPENDENT PARAMETERS FOR ATOM  Fe1       
:e__0001: OVERALL ENERGY PARAMETER IS    0.5000
          OVERALL BASIS SET ON ATOM IS LAPW
:E1_0001: E( 1)=    0.5000
             APW+lo
:E1_0001: E( 1)=   -3.1103   E(BOTTOM)=   -3.144   E(TOP)=   -3.077  1  2   183
             LOCAL ORBITAL
:E2_0001: E( 2)=    0.6664   E(BOTTOM)=    0.418   E(TOP)=    0.915  0  1   125
             APW+lo
:E0_0001: E( 0)=    0.5000
             APW+lo

          ATOMIC SPHERE DEPENDENT PARAMETERS FOR ATOM  Fe2       
:e__0002: OVERALL ENERGY PARAMETER IS    0.5000
          OVERALL BASIS SET ON ATOM IS LAPW
:E1_0002: E( 1)=    0.5000
             APW+lo
:E1_0002: E( 1)=   -3.1103   E(BOTTOM)=   -3.144   E(TOP)=   -3.077  1  2   164
             LOCAL ORBITAL
:E2_0002: E( 2)=    0.6664   E(BOTTOM)=    0.418   E(TOP)=    0.915  0  1   125
             APW+lo
:E0_0002: E( 0)=    0.5000
             APW+lo

          ATOMIC SPHERE DEPENDENT PARAMETERS FOR ATOM  Rh1       
:e__0003: OVERALL ENERGY PARAMETER IS    0.5000
          OVERALL BASIS SET ON ATOM IS LAPW
:E1_0003: E( 1)=    0.5000
             APW+lo
:E1_0003: E( 1)=   -2.6251   E(BOTTOM)=   -2.724   E(TOP)=   -2.526  2  3   168
             LOCAL ORBITAL
:E2_0003: E( 2)=    0.5000   E(BOTTOM)=    0.178   E(TOP)= -200.000  1 -1    90
             APW+lo
:E0_0003: E( 0)=    0.5000
             APW+lo

       K=   0.00000   0.00000   0.00000            1
:RKM  : MATRIX SIZE   185LOs:  48  RKM= 6.64  WEIGHT= 1.00  PGR:    
       EIGENVALUES ARE:
:EIG00001:      -3.1041761   -3.1041761   -3.1041761   -3.1023005   -3.1023005
:EIG00006:      -3.1023005   -2.6079910   -2.6079910   -2.6079910   -2.6002217
:EIG00011:      -2.6002217   -2.6002217    0.1037099    0.3686513    0.3686513
:EIG00016:       0.4345459    0.4345459    0.4345459    0.5848301    0.5848301
:EIG00021:       0.5848301    0.6046489    0.6046489    0.6046489    0.7539302
:EIG00026:       0.7539302    0.7819337    0.7819337    0.7860727    0.7860727
:EIG00031:       0.8447951    0.8447951    0.8447951    1.2953796    1.3634292
:EIG00036:       1.3634292    1.3634292    1.3642321    1.3642321    1.3642321
:EIG00041:       1.4740684    1.4740684    1.4740684    1.5234306    2.0350712
:EIG00046:       2.0350712    2.1067807    2.1855623    2.1855623    2.1855623
 
       ********************************************************

:KPT   :      NUMBER OF K-POINTS:    47
:GAP (global)   :    0.0    Ry =     0.0   eV (metal)
         Bandranges (emin - emax) and occupancy:
:BAN00022:  22    0.527388    0.656239  2.00000000
:BAN00023:  23    0.527388    0.682833  2.00000000
:BAN00024:  24    0.527388    0.696368  2.00000000
:BAN00025:  25    0.665716    0.754788  2.00000000
:BAN00026:  26    0.690062    0.768427  2.00000000
:BAN00027:  27    0.704956    0.781934  1.94054722
:BAN00028:  28    0.722067    0.781934  1.89530173
:BAN00029:  29    0.745859    0.793853  1.57366290
:BAN00030:  30    0.753802    0.802039  0.58032957
:BAN00031:  31    0.770185    0.844795  0.00997295
:BAN00032:  32    0.777263    0.844795  0.00018562
:BAN00033:  33    0.791372    0.862777  0.00000000
:BAN00034:  34    0.818774    1.295380  0.00000000
:BAN00035:  35    0.859589    1.363429  0.00000000
:BAN00036:  36    0.865188    1.363429  0.00000000
:BAN00037:  37    1.303344    1.488897  0.00000000
        Energy to separate low and high energystates:    0.05371


:NOE  : NUMBER OF ELECTRONS          =   58.000

:FER  : F E R M I - ENERGY(TETRAH.M.)=   0.7712517702
:GMA  : POTENTIAL AND CHARGE CUT-OFF  12.00 Ry**.5

:POS001: ATOM    1 X,Y,Z = 0.00000 0.00000 0.00000  MULT= 1  ZZ= 26.000  Fe1       

       LMMAX  5
       LM=   0 0  4 0  4 4  6 0  6 4

:CHA001: TOTAL VALENCE CHARGE INSIDE SPHERE   1 =  13.3042    (RMT=  2.4300 )
:PCS001: PARTIAL CHARGES SPHERE =  1 S,P,D,F,      D-EG,D-T2G 
:QTL001: 0.4772 6.5348 6.2187 0.0547 0.0000 0.0000 0.0000 2.4383 3.7804 0.0000 0.0000 0.0000
        Q-s-low E-s-low   Q-p-low E-p-low   Q-d-low E-d-low   Q-f-low E-f-low
:EPL001:  0.0011 -2.6134    5.9898 -3.1029    0.0027 -2.6090    0.0011 -2.6094
        Q-s-hi  E-s-hi    Q-p-hi  E-p-hi    Q-d-hi  E-d-hi    Q-f-hi  E-f-hi 
:EPH001:  0.4761  0.3473    0.5450  0.5050    6.2160  0.6394    0.0536  0.5845

:POS002: ATOM    2 X,Y,Z = 0.50000 0.00000 0.00000  MULT= 1  ZZ= 26.000  Fe2       

       LMMAX  5
       LM=   0 0  4 0  4 4  6 0  6 4

:CHA002: TOTAL VALENCE CHARGE INSIDE SPHERE   2 =  13.3042    (RMT=  2.4300 )
:PCS002: PARTIAL CHARGES SPHERE =  2 S,P,D,F,      D-EG,D-T2G 
:QTL002: 0.4772 6.5348 6.2187 0.0547 0.0000 0.0000 0.0000 2.4383 3.7804 0.0000 0.0000 0.0000
        Q-s-low E-s-low   Q-p-low E-p-low   Q-d-low E-d-low   Q-f-low E-f-low
:EPL002:  0.0011 -2.6134    5.9898 -3.1029    0.0027 -2.6090    0.0011 -2.6094
        Q-s-hi  E-s-hi    Q-p-hi  E-p-hi    Q-d-hi  E-d-hi    Q-f-hi  E-f-hi 
:EPH002:  0.4761  0.3473    0.5450  0.5050    6.2160  0.6394    0.0536  0.5845

:POS003: ATOM    3 X,Y,Z = 0.25000 0.25000 0.25000  MULT= 2  ZZ= 45.000  Rh1       

       LMMAX  6
       LM=   0 0  4 0  4 4  6 0  6 4 -3 2

:CHA003: TOTAL VALENCE CHARGE INSIDE SPHERE   3 =  13.1938    (RMT=  2.4300 )
:PCS003: PARTIAL CHARGES SPHERE =  3 S,P,D,F,      D-EG,D-T2G 
:QTL003: 0.3764 6.3557 6.4016 0.0478 0.0000 0.0000 0.0000 2.4425 3.9591 0.0000 0.0000 0.0000
        Q-s-low E-s-low   Q-p-low E-p-low   Q-d-low E-d-low   Q-f-low E-f-low
:EPL003:  0.0003 -3.0284    5.9578 -2.6047    0.0008 -3.0390    0.0004 -3.0364
        Q-s-hi  E-s-hi    Q-p-hi  E-p-hi    Q-d-hi  E-d-hi    Q-f-hi  E-f-hi 
:EPH003:  0.3761  0.3664    0.3979  0.5313    6.4008  0.5533    0.0474  0.6248

:CHA  : TOTAL VALENCE CHARGE INSIDE UNIT CELL =      58.000000

:SUM  : SUM OF EIGENVALUES =         -49.353542493


        1.ATOM      Fe1                   5 CORE STATES
:1S 001: 1S                -512.959038829 Ry
:2S 001: 2S                 -58.867499168 Ry
:2PP001: 2P*                -50.570937570 Ry
:2P 001: 2P                 -49.653441567 Ry
:3S 001: 3S                  -5.589875246 Ry

        2.ATOM      Fe2                   5 CORE STATES
:1S 002: 1S                -512.959038821 Ry
:2S 002: 2S                 -58.867499161 Ry
:2PP002: 2P*                -50.570937563 Ry
:2P 002: 2P                 -49.653441560 Ry
:3S 002: 3S                  -5.589875241 Ry

        3.ATOM      Rh1                  10 CORE STATES
:1S 003: 1S               -1691.280377161 Ry
:2S 003: 2S                -244.171724723 Ry
:2PP003: 2P*               -225.981679378 Ry
:2P 003: 2P                -215.352408507 Ry
:3S 003: 3S                 -42.709751117 Ry
:3PP003: 3P*                -35.591628836 Ry
:3P 003: 3P                 -33.763175191 Ry
:3DD003: 3D*                -21.164952824 Ry
:3D 003: 3D                 -20.804381608 Ry
:4S 003: 4S                  -4.953732584 Ry
:CINT001 Core Integral Atom   1   11.999200
:CINT002 Core Integral Atom   2   11.999200
:CINT003 Core Integral Atom   3   29.997254

       DENSITY AT NUCLEUS
        JATOM        VALENCE       SEMI-CORE          CORE           TOTAL
:RTO001:   1        7.046702        0.000000    15301.630059    15308.676761
:RTO002:   2        7.046702        0.000000    15301.630059    15308.676761
:RTO003:   3       24.611364        0.000000   155310.857987   155335.469351
     
       CHARGES OF NEW CHARGE DENSITY
:NTO   : INTERSTITIAL CHARGE =     5.003964
:NPC   : PW Pseudocharge     =    11.553046
:NTO001: CHARGE SPHERE  1    =    25.303364
:NTO002: CHARGE SPHERE  2    =    25.303364
:NTO003: CHARGE SPHERE  3    =    43.191078

:NEC01: NUCLEAR AND ELECTRONIC CHARGE    142.00000   141.99285
     
       CHARGES OF OLD CHARGE DENSITY
:OTO   : INTERSTITIAL CHARGE =     3.832559
:OPC   : PW Pseudocharge     =    13.602666
:OTO001: CHARGE SPHERE  1    =    25.260614
:OTO002: CHARGE SPHERE  2    =    25.260614
:OTO003: CHARGE SPHERE  3    =    43.823106

:NEC02: NUCLEAR AND ELECTRONIC CHARGE    142.00000   142.00000
     
       CONVERGENCE TEST
:DTO001: DIFFERENCE IN SPHERE  1 =  0.5201691
:DTO002: DIFFERENCE IN SPHERE  2 =  0.5201692
:DTO003: DIFFERENCE IN SPHERE  3 =  0.7389289

:DIS  :  CHARGE DISTANCE       ( 0.7389289 for atom    3 spin 1)      0.6295490
 PW Mixed is           49
 
******************************************************
* MULTISECANT MIXING VER9 RELEASE 10.4.0              *
* Slow Mode, cautious                                *
* Fixed density scale                                *
* Regularization       1.000E-04                     *
* Step Trust Radius    0.75000                       *
* Trust Upper Limit    2.000E+00                     *
* Max Number of Memory Steps   12                    *
******************************************************
 
:PWTMP   1.1765E+02  4.5917E+02  3.5807E+02
:PLANE:  PW TOTAL      2.0043 DISTAN   5.52E-01  2.76E+01 %
:CHARG:  CLM/ATOM    299.8792 DISTAN   4.31E-01  1.44E-01 %
 
Step History
        DMIX         DMIXT        Red     Pred      Trust     Lambda    MagRel    MagAbs     Beta
  1   3.5000E-02   3.5000E-02 -1.00E+00  1.00E+00 -1.00E+01  1.00E+00  3.50E-02  3.50E-02  1.00E+00
  2   2.5000E-02   2.5000E-02 -1.00E+00  1.00E+00 -1.00E+01  1.00E+00  2.50E-02  5.93E-02  1.00E+00
:JACOBIANS    4.819E-01   2.240E-03
  
:TRUST:  Step 3.74E-02  Charge 7.50E-02 (e) CTO  2.50E-01 (e) PW  3.50E-01 (e)
:DIRM :  MEMORY  1/12 SCALE   1.000
:MIX  :   PRATT  REGULARIZATION:  1.00E-04 GREED: 0.03742  Expand 1.50  0.0374                
     
       CHARGES OF MIXED CHARGE DENSITY
:CTO   : INTERSTITIAL CHARGE =     3.843147
:CPC   : PW Pseudocharge     =    11.836844
:CTO001: CHARGE SPHERE  1    =    25.261864
:CTO002: CHARGE SPHERE  2    =    25.261864
:CTO003: CHARGE SPHERE  3    =    43.816562

:NEC03: NUCLEAR AND ELECTRONIC CHARGE    142.00000   142.00000

PW CHANGE     H    K    L      Current       Change    Residue
:PTO001:      0    0    0  4.37902514E-02 -4.902E-03 -2.387E-03
:PTO003:      0    0   -2 -1.74391467E-02  7.697E-03  1.371E-02
:PTO004:      0   -2   -2  1.41495827E-03 -3.397E-02 -3.910E-02
:PTO006:     -2   -2   -2  6.39901047E-03  5.069E-03  2.218E-03
:PTO007:      0    0   -4 -2.08515548E-02 -8.921E-03 -5.397E-04
:PTO009:      0   -2   -4  2.45889118E-02  6.495E-03 -7.610E-03
:PTO010:     -2   -2   -4 -6.05898548E-02 -1.652E-02  2.414E-02
:PTO013:      0   -4   -4 -1.48713835E-02 -3.016E-03  1.071E-02
:PTO015:     -2   -4   -4  5.85095361E-03 -8.896E-05 -4.670E-03
:PTO016:      0    0   -6  1.47374022E-03 -1.947E-05 -9.357E-04
:PTO017:      0   -2   -6 -9.05917206E-03 -9.357E-04  8.589E-03
:PTO019:     -2   -2   -6  6.54123726E-04 -8.182E-04 -1.238E-03

:ENE  : ********** TOTAL ENERGY IN Ry =       -24232.21723762

 Flat Integration
 New Mode for Coulomb Integral
 Consistent 3/8+Simpson combinations
 Extension of core to zero
 LDM version in phi
 Fifth-order quadrature in outwin


            ---------
:ITE003:  3. ITERATION
            ---------

:NATO :    3 INDEPENDENT AND    4 TOTAL ATOMS IN UNITCELL
       SUBSTANCE: FeRh                                                        

       LATTICE                      = F   
:POT  : POTENTIAL OPTION EX_PBE EC_PBE VX_PBE VC_PBE
:LAT  : LATTICE CONSTANTS= 11.27222 11.27222 11.27222    1.571    1.571    1.571
:VOL  : UNIT CELL VOLUME =     358.07036
       MODE OF CALCULATION IS       = RELA
       NON-SPINPOLARIZED CALCULATION
:IFFT  : FFT-parameters:   90   90   90 Factor: 2.00


   CONVERGENCE PARAMETER FOR PSEUDOCHARGE: NCON=  9
   MAXIMAL VALUE OF RMT(JATOM)*ABSK(NKK) : RK  =29.05063


:VKCOUL :  VK-COUL convergence: 0.534E-07
       ATOMNUMBER=  1 Fe1        VCOUL-ZERO =  0.62108E+00
       ATOMNUMBER=  2 Fe2        VCOUL-ZERO =  0.62108E+00
       ATOMNUMBER=  3 Rh1        VCOUL-ZERO =  0.58952E+00
:FIT001: LUSE= 13 SIGMA OF V-XC FIT FOR ATOM  1  0.5019040E-02
:FIT001: LUSE= 13 SIGMA OF V-XC FIT FOR ATOM  1  0.5019040E-02
:FIT002: LUSE= 13 SIGMA OF V-XC FIT FOR ATOM  2  0.5019040E-02
:FIT002: LUSE= 13 SIGMA OF V-XC FIT FOR ATOM  2  0.5019040E-02
:FIT003: LUSE= 13 SIGMA OF V-XC FIT FOR ATOM  3  0.1169264E-02
:FIT003: LUSE= 13 SIGMA OF V-XC FIT FOR ATOM  3  0.1169264E-02
:DEN  : DENSITY INTEGRAL  =         -9880.80062034   (Ry)
       ELS_POTENTIAL_AT Z=0 and Z=0.5:  -0.21057  -0.21057
       ELS_POTENTIAL_AT Y=0 and Y=0.5:   0.00000   0.00000
:VZERO:v0,v0c,v0x  -0.74524  -0.21057  -0.53467 v5,v5c,v5x  -0.74524  -0.21057  -0.53467
:VZERY:v0,v0c,v0x  -0.77970   0.00000  -0.77970 v5,v5c,v5x  -0.77970   0.00000  -0.77970
:VZERX:v0,v0c,v0x  -0.77970   0.00000  -0.77970 v5,v5c,v5x  -0.77970   0.00000  -0.77970
:LMAX-WF:   10   Non-Spherical LMAX:   4

          ATOMIC SPHERE DEPENDENT PARAMETERS FOR ATOM  Fe1       
:e__0001: OVERALL ENERGY PARAMETER IS    0.5475
          OVERALL BASIS SET ON ATOM IS LAPW
:E1_0001: E( 1)=    0.5475
             APW+lo
:E1_0001: E( 1)=   -3.1218   E(BOTTOM)=   -3.155   E(TOP)=   -3.088  1  2   189
             LOCAL ORBITAL
:E2_0001: E( 2)=    0.6554   E(BOTTOM)=    0.407   E(TOP)=    0.904  0  1   126
             APW+lo
:E0_0001: E( 0)=    0.5475
             APW+lo

          ATOMIC SPHERE DEPENDENT PARAMETERS FOR ATOM  Fe2       
:e__0002: OVERALL ENERGY PARAMETER IS    0.5475
          OVERALL BASIS SET ON ATOM IS LAPW
:E1_0002: E( 1)=    0.5475
             APW+lo
:E1_0002: E( 1)=   -3.1218   E(BOTTOM)=   -3.155   E(TOP)=   -3.088  1  2   170
             LOCAL ORBITAL
:E2_0002: E( 2)=    0.6554   E(BOTTOM)=    0.407   E(TOP)=    0.904  0  1   126
             APW+lo
:E0_0002: E( 0)=    0.5475
             APW+lo

          ATOMIC SPHERE DEPENDENT PARAMETERS FOR ATOM  Rh1       
:e__0003: OVERALL ENERGY PARAMETER IS    0.5475
          OVERALL BASIS SET ON ATOM IS LAPW
:E1_0003: E( 1)=    0.5475
             APW+lo
:E1_0003: E( 1)=   -2.6408   E(BOTTOM)=   -2.740   E(TOP)=   -2.542  2  3   169
             LOCAL ORBITAL
:E2_0003: E( 2)=    0.5475   E(BOTTOM)=    0.164   E(TOP)= -200.000  1 -1    98
             APW+lo
:E0_0003: E( 0)=    0.5475
             APW+lo

       K=   0.00000   0.00000   0.00000            1
:RKM  : MATRIX SIZE   185LOs:  48  RKM= 6.64  WEIGHT= 1.00  PGR:    
       EIGENVALUES ARE:
:EIG00001:      -3.1156992   -3.1156992   -3.1156992   -3.1138460   -3.1138460
:EIG00006:      -3.1138460   -2.6237613   -2.6237613   -2.6237613   -2.6160268
:EIG00011:      -2.6160268   -2.6160268    0.0934776    0.3566612    0.3566612
:EIG00016:       0.4221001    0.4221001    0.4221001    0.5739544    0.5739544
:EIG00021:       0.5739544    0.5918906    0.5918906    0.5918906    0.7417919
:EIG00026:       0.7417919    0.7707415    0.7707415    0.7714127    0.7714127
:EIG00031:       0.8320296    0.8320296    0.8320296    1.2851626    1.3523390
:EIG00036:       1.3523390    1.3523390    1.3536833    1.3536833    1.3536833
:EIG00041:       1.4603150    1.4603150    1.4603150    1.5116052    2.0203246
:EIG00046:       2.0203246    2.0952878    2.1749731    2.1749731    2.1749731
 
       ********************************************************

:KPT   :      NUMBER OF K-POINTS:    47
:GAP (global)   :    0.0    Ry =     0.0   eV (metal)
         Bandranges (emin - emax) and occupancy:
:BAN00022:  22    0.514911    0.645071  2.00000000
:BAN00023:  23    0.515270    0.671777  2.00000000
:BAN00024:  24    0.515270    0.685077  2.00000000
:BAN00025:  25    0.654020    0.742582  2.00000000
:BAN00026:  26    0.679166    0.754824  2.00000000
:BAN00027:  27    0.694290    0.770741  1.95006107
:BAN00028:  28    0.710120    0.770741  1.89667708
:BAN00029:  29    0.734141    0.781822  1.56679110
:BAN00030:  30    0.742166    0.789215  0.57657897
:BAN00031:  31    0.757713    0.832030  0.00972142
:BAN00032:  32    0.766079    0.832030  0.00017035
:BAN00033:  33    0.778967    0.850018  0.00000000
:BAN00034:  34    0.806433    1.285163  0.00000000
:BAN00035:  35    0.846288    1.352339  0.00000000
:BAN00036:  36    0.851718    1.352339  0.00000000
:BAN00037:  37    1.292517    1.476507  0.00000000
        Energy to separate low and high energystates:    0.04348


:NOE  : NUMBER OF ELECTRONS          =   58.000

:FER  : F E R M I - ENERGY(TETRAH.M.)=   0.7589576415
:GMA  : POTENTIAL AND CHARGE CUT-OFF  12.00 Ry**.5

:POS001: ATOM    1 X,Y,Z = 0.00000 0.00000 0.00000  MULT= 1  ZZ= 26.000  Fe1       

       LMMAX  5
       LM=   0 0  4 0  4 4  6 0  6 4

:CHA001: TOTAL VALENCE CHARGE INSIDE SPHERE   1 =  13.2763    (RMT=  2.4300 )
:PCS001: PARTIAL CHARGES SPHERE =  1 S,P,D,F,      D-EG,D-T2G 
:QTL001: 0.4759 6.5315 6.1955 0.0545 0.0000 0.0000 0.0000 2.4247 3.7709 0.0000 0.0000 0.0000
        Q-s-low E-s-low   Q-p-low E-p-low   Q-d-low E-d-low   Q-f-low E-f-low
:EPL001:  0.0011 -2.6291    5.9898 -3.1145    0.0027 -2.6247    0.0011 -2.6252
        Q-s-hi  E-s-hi    Q-p-hi  E-p-hi    Q-d-hi  E-d-hi    Q-f-hi  E-f-hi 
:EPH001:  0.4748  0.3364    0.5417  0.4931    6.1928  0.6281    0.0533  0.5716

:POS002: ATOM    2 X,Y,Z = 0.50000 0.00000 0.00000  MULT= 1  ZZ= 26.000  Fe2       

       LMMAX  5
       LM=   0 0  4 0  4 4  6 0  6 4

:CHA002: TOTAL VALENCE CHARGE INSIDE SPHERE   2 =  13.2763    (RMT=  2.4300 )
:PCS002: PARTIAL CHARGES SPHERE =  2 S,P,D,F,      D-EG,D-T2G 
:QTL002: 0.4759 6.5315 6.1955 0.0545 0.0000 0.0000 0.0000 2.4247 3.7709 0.0000 0.0000 0.0000
        Q-s-low E-s-low   Q-p-low E-p-low   Q-d-low E-d-low   Q-f-low E-f-low
:EPL002:  0.0011 -2.6291    5.9898 -3.1145    0.0027 -2.6247    0.0011 -2.6252
        Q-s-hi  E-s-hi    Q-p-hi  E-p-hi    Q-d-hi  E-d-hi    Q-f-hi  E-f-hi 
:EPH002:  0.4748  0.3364    0.5417  0.4931    6.1928  0.6281    0.0533  0.5716

:POS003: ATOM    3 X,Y,Z = 0.25000 0.25000 0.25000  MULT= 2  ZZ= 45.000  Rh1       

       LMMAX  6
       LM=   0 0  4 0  4 4  6 0  6 4 -3 2

:CHA003: TOTAL VALENCE CHARGE INSIDE SPHERE   3 =  13.2299    (RMT=  2.4300 )
:PCS003: PARTIAL CHARGES SPHERE =  3 S,P,D,F,      D-EG,D-T2G 
:QTL003: 0.3764 6.3548 6.4389 0.0476 0.0000 0.0000 0.0000 2.4609 3.9779 0.0000 0.0000 0.0000
        Q-s-low E-s-low   Q-p-low E-p-low   Q-d-low E-d-low   Q-f-low E-f-low
:EPL003:  0.0003 -3.0411    5.9580 -2.6205    0.0008 -3.0514    0.0004 -3.0489
        Q-s-hi  E-s-hi    Q-p-hi  E-p-hi    Q-d-hi  E-d-hi    Q-f-hi  E-f-hi 
:EPH003:  0.3761  0.3557    0.3968  0.5203    6.4380  0.5406    0.0472  0.6134

:CHA  : TOTAL VALENCE CHARGE INSIDE UNIT CELL =      58.000000

:SUM  : SUM OF EIGENVALUES =         -50.088394130


        1.ATOM      Fe1                   5 CORE STATES
:1S 001: 1S                -512.972647259 Ry
:2S 001: 2S                 -58.880934689 Ry
:2PP001: 2P*                -50.584423202 Ry
:2P 001: 2P                 -49.666922109 Ry
:3S 001: 3S                  -5.601551202 Ry

        2.ATOM      Fe2                   5 CORE STATES
:1S 002: 1S                -512.972647249 Ry
:2S 002: 2S                 -58.880934680 Ry
:2PP002: 2P*                -50.584423192 Ry
:2P 002: 2P                 -49.666922100 Ry
:3S 002: 3S                  -5.601551196 Ry

        3.ATOM      Rh1                  10 CORE STATES
:1S 003: 1S               -1691.301346767 Ry
:2S 003: 2S                -244.192368770 Ry
:2PP003: 2P*               -226.002419227 Ry
:2P 003: 2P                -215.373127116 Ry
:3S 003: 3S                 -42.728954456 Ry
:3PP003: 3P*                -35.610871779 Ry
:3P 003: 3P                 -33.782365628 Ry
:3DD003: 3D*                -21.184299660 Ry
:3D 003: 3D                 -20.823710167 Ry
:4S 003: 4S                  -4.970063180 Ry
:CINT001 Core Integral Atom   1   11.999201
:CINT002 Core Integral Atom   2   11.999201
:CINT003 Core Integral Atom   3   29.997264

       DENSITY AT NUCLEUS
        JATOM        VALENCE       SEMI-CORE          CORE           TOTAL
:RTO001:   1        7.017359        0.000000    15301.668535    15308.685895
:RTO002:   2        7.017359        0.000000    15301.668535    15308.685895
:RTO003:   3       24.587379        0.000000   155311.141352   155335.728731
     
       CHARGES OF NEW CHARGE DENSITY
:NTO   : INTERSTITIAL CHARGE =     4.987445
:NPC   : PW Pseudocharge     =    11.538466
:NTO001: CHARGE SPHERE  1    =    25.275525
:NTO002: CHARGE SPHERE  2    =    25.275525
:NTO003: CHARGE SPHERE  3    =    43.227187

:NEC01: NUCLEAR AND ELECTRONIC CHARGE    142.00000   141.99287
     
       CHARGES OF OLD CHARGE DENSITY
:OTO   : INTERSTITIAL CHARGE =     3.843147
:OPC   : PW Pseudocharge     =    11.836844
:OTO001: CHARGE SPHERE  1    =    25.261864
:OTO002: CHARGE SPHERE  2    =    25.261864
:OTO003: CHARGE SPHERE  3    =    43.816562

:NEC02: NUCLEAR AND ELECTRONIC CHARGE    142.00000   142.00000
     
       CONVERGENCE TEST
:DTO001: DIFFERENCE IN SPHERE  1 =  0.5326360
:DTO002: DIFFERENCE IN SPHERE  2 =  0.5326362
:DTO003: DIFFERENCE IN SPHERE  3 =  0.6949629

:DIS  :  CHARGE DISTANCE       ( 0.6949629 for atom    3 spin 1)      0.6137995
 PW Mixed is           49
 
******************************************************
* MULTISECANT MIXING VER9 RELEASE 10.4.0              *
* Standard Mode with controls                        *
* Fixed density scale                                *
* Regularization       1.000E-04                     *
* Trust Upper Limit    5.000E+00                     *
* Max Number of Memory Steps    8                    *
******************************************************
 
:PWTMP   1.1765E+02  4.5917E+02  3.5807E+02
:PLANE:  PW TOTAL      1.8244 DISTAN   4.31E-01  2.36E+01 %
:CHARG:  CLM/ATOM    299.8784 DISTAN   4.18E-01  1.39E-01 %
 
Step History
        DMIX         DMIXT        Red     Pred      Trust     Lambda    MagRel    MagAbs     Beta
  1   3.5000E-02   3.5000E-02 -1.00E+00  1.00E+00 -1.00E+01  1.00E+00  3.50E-02  3.50E-02  1.00E+00
  2   2.5000E-02   2.5000E-02  5.93E-01  1.00E+00 -1.00E+01  1.00E+00  2.50E-02  5.93E-02  1.00E+00
  3   3.7423E-02   3.7423E-02 -1.00E+00  1.00E+00 -1.00E+01  1.00E+00  3.74E-02  5.26E-02  1.00E+00
:JACOBIANS    7.373E-01   1.649E-03
  
:NORMS:  1/Froebius, Min, Max, Used   0.9862E+00  0.4976E+00  0.9953E+00  0.9863E+00
:INFO :  Number of Memory Steps    2 Skipping    0
:INFO :  SLambda=    0.1685736953  Max    0.1685736953
:PREDicted Charge, CTotal, PW Trust    5.645E-03   9.133E-03   4.975E-01
:PREDicted DMix, Beta, BLim   6.7357E-02  8.2877E-01  3.9918E-01

Eigenvalues, unscaled except for SY+YY
   #     SY Real        SY Imag          SS             YY         SY+YY Real      SY+YY Imag
   1   1.765255E-14   0.000000E+00   1.945045E+00   1.999331E+00   6.713176E-04   0.000000E+00
   2   1.951762E+00   0.000000E+00   0.000000E+00   6.694689E-04   2.328344E+00   0.000000E+00
 
:INFO :  Singular value  2.328E+00 Weight  1.000E+00 Projection  1.670E-02
:INFO :  Singular value  6.713E-04 Weight  9.185E-01 Projection -1.885E+01
:RANK :  ACTIVE   1.92/2  =  95.93 % ; YY RANK   1.92/2  =  95.91 %
 
:DLIM :  Beta Active  8.716E-01
:BLIM :  VZERO Control Off
:TRUST:  Step 2.53E-01  Charge 7.50E-02 (e) CTO  2.50E-01 (e) PW  3.85E-01 (e)
:DIRM :  MEMORY  2/8  SCALE   1.000 RED  0.94 PRED  1.00 NEXT  0.92 BETA  0.87
:TRAVE:  Charge 2.24E-02 (e) CTO  5.66E-02 (e) PW  9.31E-02 (e)
:DIRP :  |MSR1|= 7.630E-02 |PRATT|= 4.308E-01 ANGLE=  57.4 DEGREES
:DIRQ :  |MSR1|= 5.621E-02 |PRATT|= 1.253E+00 ANGLE=  23.5 DEGREES
:DIRT :  |MSR1|= 9.477E-02 |PRATT|= 1.325E+00 ANGLE=  49.1 DEGREES
:MIX  :   MSD1   REGULARIZATION:  2.00E-04 GREED: 0.05053  Newton 1.00  0.0715                
     
       CHARGES OF MIXED CHARGE DENSITY
:CTO   : INTERSTITIAL CHARGE =     3.899766
:CPC   : PW Pseudocharge     =    12.063599
:CTO001: CHARGE SPHERE  1    =    25.255985
:CTO002: CHARGE SPHERE  2    =    25.255985
:CTO003: CHARGE SPHERE  3    =    43.794132

:NEC03: NUCLEAR AND ELECTRONIC CHARGE    142.00000   142.00000

PW CHANGE     H    K    L      Current       Change    Residue
:PTO001:      0    0    0  4.45816439E-02  7.914E-04  2.428E-03
:PTO002:     -1   -1   -1  3.38912829E-12  3.389E-12  3.298E-10
:PTO003:      0    0   -2 -1.82231844E-02 -7.840E-04  5.846E-03
:PTO004:      0   -2   -2  5.83232028E-03  4.417E-03 -4.938E-03
:PTO005:     -1   -1   -3  6.10891155E-11  6.109E-11 -4.767E-11
:PTO006:     -2   -2   -2  5.55741590E-03 -8.416E-04 -2.810E-03
:PTO007:      0    0   -4 -1.91839198E-02  1.668E-03  8.388E-03
:PTO008:     -1   -3   -3 -2.92814872E-11 -2.928E-11 -4.877E-10
:PTO009:      0   -2   -4  2.29858435E-02 -1.603E-03 -1.395E-02
:PTO010:     -2   -2   -4 -5.62588720E-02  4.331E-03  4.062E-02
:PTO011:     -3   -3   -3  5.60822674E-12  5.608E-12 -1.011E-10
:PTO012:     -1   -1   -5 -7.65206603E-12 -7.653E-12  3.786E-11

:ENE  : ********** TOTAL ENERGY IN Ry =       -24232.20957460

 Flat Integration
 New Mode for Coulomb Integral
 Consistent 3/8+Simpson combinations
 Extension of core to zero
 LDM version in phi
 Fifth-order quadrature in outwin


            ---------
:ITE004:  4. ITERATION
            ---------

:NATO :    3 INDEPENDENT AND    4 TOTAL ATOMS IN UNITCELL
       SUBSTANCE: FeRh                                                        

       LATTICE                      = F   
:POT  : POTENTIAL OPTION EX_PBE EC_PBE VX_PBE VC_PBE
:LAT  : LATTICE CONSTANTS= 11.27222 11.27222 11.27222    1.571    1.571    1.571
:VOL  : UNIT CELL VOLUME =     358.07036
       MODE OF CALCULATION IS       = RELA
       NON-SPINPOLARIZED CALCULATION
:IFFT  : FFT-parameters:   90   90   90 Factor: 2.00


   CONVERGENCE PARAMETER FOR PSEUDOCHARGE: NCON=  9
   MAXIMAL VALUE OF RMT(JATOM)*ABSK(NKK) : RK  =29.05063


:VKCOUL :  VK-COUL convergence: 0.537E-07
       ATOMNUMBER=  1 Fe1        VCOUL-ZERO =  0.62574E+00
       ATOMNUMBER=  2 Fe2        VCOUL-ZERO =  0.62574E+00
       ATOMNUMBER=  3 Rh1        VCOUL-ZERO =  0.59249E+00
:FIT001: LUSE= 13 SIGMA OF V-XC FIT FOR ATOM  1  0.4701201E-02
:FIT001: LUSE= 13 SIGMA OF V-XC FIT FOR ATOM  1  0.4701201E-02
:FIT002: LUSE= 13 SIGMA OF V-XC FIT FOR ATOM  2  0.4701201E-02
:FIT002: LUSE= 13 SIGMA OF V-XC FIT FOR ATOM  2  0.4701201E-02
:FIT003: LUSE= 13 SIGMA OF V-XC FIT FOR ATOM  3  0.9463690E-03
:FIT003: LUSE= 13 SIGMA OF V-XC FIT FOR ATOM  3  0.9463690E-03
:DEN  : DENSITY INTEGRAL  =         -9877.84157041   (Ry)
       ELS_POTENTIAL_AT Z=0 and Z=0.5:  -0.20821  -0.20821
       ELS_POTENTIAL_AT Y=0 and Y=0.5:   0.00000   0.00000
:VZERO:v0,v0c,v0x  -0.76149  -0.20821  -0.55328 v5,v5c,v5x  -0.76149  -0.20821  -0.55328
:VZERY:v0,v0c,v0x  -0.78678   0.00000  -0.78678 v5,v5c,v5x  -0.78678   0.00000  -0.78678
:VZERX:v0,v0c,v0x  -0.78678   0.00000  -0.78678 v5,v5c,v5x  -0.78678   0.00000  -0.78678
:LMAX-WF:   10   Non-Spherical LMAX:   4

          ATOMIC SPHERE DEPENDENT PARAMETERS FOR ATOM  Fe1       
:e__0001: OVERALL ENERGY PARAMETER IS    0.5551
          OVERALL BASIS SET ON ATOM IS LAPW
:E1_0001: E( 1)=    0.5551
             APW+lo
:E1_0001: E( 1)=   -3.1423   E(BOTTOM)=   -3.175   E(TOP)=   -3.109  1  2   180
             LOCAL ORBITAL
:E2_0001: E( 2)=    0.6399   E(BOTTOM)=    0.395   E(TOP)=    0.885  0  1   125
             APW+lo
:E0_0001: E( 0)=    0.5551
             APW+lo

          ATOMIC SPHERE DEPENDENT PARAMETERS FOR ATOM  Fe2       
:e__0002: OVERALL ENERGY PARAMETER IS    0.5551
          OVERALL BASIS SET ON ATOM IS LAPW
:E1_0002: E( 1)=    0.5551
             APW+lo
:E1_0002: E( 1)=   -3.1423   E(BOTTOM)=   -3.175   E(TOP)=   -3.109  1  2   160
             LOCAL ORBITAL
:E2_0002: E( 2)=    0.6399   E(BOTTOM)=    0.395   E(TOP)=    0.885  0  1   125
             APW+lo
:E0_0002: E( 0)=    0.5551
             APW+lo

          ATOMIC SPHERE DEPENDENT PARAMETERS FOR ATOM  Rh1       
:e__0003: OVERALL ENERGY PARAMETER IS    0.5551
          OVERALL BASIS SET ON ATOM IS LAPW
:E1_0003: E( 1)=    0.5551
             APW+lo
:E1_0003: E( 1)=   -2.6546   E(BOTTOM)=   -2.753   E(TOP)=   -2.556  2  3   170
             LOCAL ORBITAL
:E2_0003: E( 2)=    0.5551   E(BOTTOM)=    0.157   E(TOP)= -200.000  1 -1    91
             APW+lo
:E0_0003: E( 0)=    0.5551
             APW+lo

       K=   0.00000   0.00000   0.00000            1
:RKM  : MATRIX SIZE   185LOs:  48  RKM= 6.64  WEIGHT= 1.00  PGR:    
       EIGENVALUES ARE:
:EIG00001:      -3.1362557   -3.1362557   -3.1362557   -3.1344435   -3.1344435
:EIG00006:      -3.1344435   -2.6376957   -2.6376957   -2.6376957   -2.6300649
:EIG00011:      -2.6300649   -2.6300649    0.0922097    0.3496087    0.3496087
:EIG00016:       0.4160454    0.4160454    0.4160454    0.5626592    0.5626592
:EIG00021:       0.5626592    0.5805724    0.5805724    0.5805724    0.7274722
:EIG00026:       0.7274722    0.7535844    0.7535844    0.7608768    0.7608768
:EIG00031:       0.8167872    0.8167872    0.8167872    1.2823076    1.3440500
:EIG00036:       1.3440500    1.3440500    1.3514948    1.3514948    1.3514948
:EIG00041:       1.4538319    1.4538319    1.4538319    1.5086709    2.0117516
:EIG00046:       2.0117516    2.0917639    2.1745540    2.1745540    2.1745540
 
       ********************************************************

:KPT   :      NUMBER OF K-POINTS:    47
:GAP (global)   :    0.0    Ry =     0.0   eV (metal)
         Bandranges (emin - emax) and occupancy:
:BAN00022:  22    0.505555    0.635740  2.00000000
:BAN00023:  23    0.506358    0.657103  2.00000000
:BAN00024:  24    0.506358    0.670780  2.00000000
:BAN00025:  25    0.643393    0.728180  2.00000000
:BAN00026:  26    0.668479    0.742142  2.00000000
:BAN00027:  27    0.685627    0.753584  1.93550458
:BAN00028:  28    0.696411    0.753584  1.89671804
:BAN00029:  29    0.719168    0.766671  1.57591797
:BAN00030:  30    0.726905    0.775092  0.58325665
:BAN00031:  31    0.743279    0.816787  0.00850783
:BAN00032:  32    0.751440    0.816787  0.00009493
:BAN00033:  33    0.764725    0.834392  0.00000000
:BAN00034:  34    0.792711    1.282308  0.00000000
:BAN00035:  35    0.836799    1.344050  0.00000000
:BAN00036:  36    0.840018    1.344050  0.00000000
:BAN00037:  37    1.288777    1.469548  0.00000000
        Energy to separate low and high energystates:    0.04221


:NOE  : NUMBER OF ELECTRONS          =   58.000

:FER  : F E R M I - ENERGY(TETRAH.M.)=   0.7443584283
:GMA  : POTENTIAL AND CHARGE CUT-OFF  12.00 Ry**.5

:POS001: ATOM    1 X,Y,Z = 0.00000 0.00000 0.00000  MULT= 1  ZZ= 26.000  Fe1       

       LMMAX  5
       LM=   0 0  4 0  4 4  6 0  6 4

:CHA001: TOTAL VALENCE CHARGE INSIDE SPHERE   1 =  13.3531    (RMT=  2.4300 )
:PCS001: PARTIAL CHARGES SPHERE =  1 S,P,D,F,      D-EG,D-T2G 
:QTL001: 0.4726 6.5216 6.2869 0.0533 0.0000 0.0000 0.0000 2.4768 3.8101 0.0000 0.0000 0.0000
        Q-s-low E-s-low   Q-p-low E-p-low   Q-d-low E-d-low   Q-f-low E-f-low
:EPL001:  0.0011 -2.6430    5.9900 -3.1351    0.0026 -2.6387    0.0011 -2.6392
        Q-s-hi  E-s-hi    Q-p-hi  E-p-hi    Q-d-hi  E-d-hi    Q-f-hi  E-f-hi 
:EPH001:  0.4716  0.3324    0.5316  0.4866    6.2843  0.6151    0.0522  0.5622

:POS002: ATOM    2 X,Y,Z = 0.50000 0.00000 0.00000  MULT= 1  ZZ= 26.000  Fe2       

       LMMAX  5
       LM=   0 0  4 0  4 4  6 0  6 4

:CHA002: TOTAL VALENCE CHARGE INSIDE SPHERE   2 =  13.3531    (RMT=  2.4300 )
:PCS002: PARTIAL CHARGES SPHERE =  2 S,P,D,F,      D-EG,D-T2G 
:QTL002: 0.4726 6.5216 6.2869 0.0533 0.0000 0.0000 0.0000 2.4768 3.8101 0.0000 0.0000 0.0000
        Q-s-low E-s-low   Q-p-low E-p-low   Q-d-low E-d-low   Q-f-low E-f-low
:EPL002:  0.0011 -2.6430    5.9900 -3.1351    0.0026 -2.6387    0.0011 -2.6392
        Q-s-hi  E-s-hi    Q-p-hi  E-p-hi    Q-d-hi  E-d-hi    Q-f-hi  E-f-hi 
:EPH002:  0.4716  0.3324    0.5316  0.4866    6.2843  0.6151    0.0522  0.5622

:POS003: ATOM    3 X,Y,Z = 0.25000 0.25000 0.25000  MULT= 2  ZZ= 45.000  Rh1       

       LMMAX  6
       LM=   0 0  4 0  4 4  6 0  6 4 -3 2

:CHA003: TOTAL VALENCE CHARGE INSIDE SPHERE   3 =  13.1914    (RMT=  2.4300 )
:PCS003: PARTIAL CHARGES SPHERE =  3 S,P,D,F,      D-EG,D-T2G 
:QTL003: 0.3730 6.3456 6.4144 0.0463 0.0000 0.0000 0.0000 2.4480 3.9664 0.0000 0.0000 0.0000
        Q-s-low E-s-low   Q-p-low E-p-low   Q-d-low E-d-low   Q-f-low E-f-low
:EPL003:  0.0003 -3.0604    5.9585 -2.6345    0.0008 -3.0710    0.0004 -3.0685
        Q-s-hi  E-s-hi    Q-p-hi  E-p-hi    Q-d-hi  E-d-hi    Q-f-hi  E-f-hi 
:EPH003:  0.3727  0.3506    0.3872  0.5122    6.4136  0.5312    0.0459  0.6010

:CHA  : TOTAL VALENCE CHARGE INSIDE UNIT CELL =      58.000000

:SUM  : SUM OF EIGENVALUES =         -50.822845263


        1.ATOM      Fe1                   5 CORE STATES
:1S 001: 1S                -513.011775710 Ry
:2S 001: 2S                 -58.918493483 Ry
:2PP001: 2P*                -50.622427215 Ry
:2P 001: 2P                 -49.704881321 Ry
:3S 001: 3S                  -5.623421227 Ry

        2.ATOM      Fe2                   5 CORE STATES
:1S 002: 1S                -513.011775723 Ry
:2S 002: 2S                 -58.918493499 Ry
:2PP002: 2P*                -50.622427230 Ry
:2P 002: 2P                 -49.704881337 Ry
:3S 002: 3S                  -5.623421238 Ry

        3.ATOM      Rh1                  10 CORE STATES
:1S 003: 1S               -1691.326504962 Ry
:2S 003: 2S                -244.216925029 Ry
:2PP003: 2P*               -226.027153485 Ry
:2P 003: 2P                -215.397820966 Ry
:3S 003: 3S                 -42.750642300 Ry
:3PP003: 3P*                -35.632636149 Ry
:3P 003: 3P                 -33.804026048 Ry
:3DD003: 3D*                -21.206272831 Ry
:3D 003: 3D                 -20.845646963 Ry
:4S 003: 4S                  -4.985468357 Ry
:CINT001 Core Integral Atom   1   11.999214
:CINT002 Core Integral Atom   2   11.999214
:CINT003 Core Integral Atom   3   29.997289

       DENSITY AT NUCLEUS
        JATOM        VALENCE       SEMI-CORE          CORE           TOTAL
:RTO001:   1        6.954997        0.000000    15302.021005    15308.976002
:RTO002:   2        6.954997        0.000000    15302.021005    15308.976002
:RTO003:   3       24.324846        0.000000   155311.804732   155336.129578
     
       CHARGES OF NEW CHARGE DENSITY
:NTO   : INTERSTITIAL CHARGE =     4.911094
:NPC   : PW Pseudocharge     =    11.407809
:NTO001: CHARGE SPHERE  1    =    25.352280
:NTO002: CHARGE SPHERE  2    =    25.352281
:NTO003: CHARGE SPHERE  3    =    43.188644

:NEC01: NUCLEAR AND ELECTRONIC CHARGE    142.00000   141.99294
     
       CHARGES OF OLD CHARGE DENSITY
:OTO   : INTERSTITIAL CHARGE =     3.899766
:OPC   : PW Pseudocharge     =    12.063599
:OTO001: CHARGE SPHERE  1    =    25.255985
:OTO002: CHARGE SPHERE  2    =    25.255985
:OTO003: CHARGE SPHERE  3    =    43.794132

:NEC02: NUCLEAR AND ELECTRONIC CHARGE    142.00000   142.00000
     
       CONVERGENCE TEST
:DTO001: DIFFERENCE IN SPHERE  1 =  0.3564763
:DTO002: DIFFERENCE IN SPHERE  2 =  0.3564756
:DTO003: DIFFERENCE IN SPHERE  3 =  0.6733070

:DIS  :  CHARGE DISTANCE       ( 0.6733070 for atom    3 spin 1)      0.5148915
 PW Mixed is           49
 
******************************************************
* MULTISECANT MIXING VER9 RELEASE 10.4.0              *
* Standard Mode with controls                        *
* Fixed density scale                                *
* Regularization       1.000E-04                     *
* Trust Upper Limit    5.000E+00                     *
* Max Number of Memory Steps    8                    *
******************************************************
 
:PWTMP   1.1765E+02  4.5917E+02  3.5807E+02
:PLANE:  PW TOTAL      1.8392 DISTAN   3.93E-01  2.13E+01 %
:CHARG:  CLM/ATOM    299.8761 DISTAN   3.65E-01  1.22E-01 %
 
Step History
        DMIX         DMIXT        Red     Pred      Trust     Lambda    MagRel    MagAbs     Beta
  1   3.5000E-02   3.5000E-02 -1.00E+00  1.00E+00 -1.00E+01  1.00E+00  3.50E-02  3.50E-02  1.00E+00
  2   2.5000E-02   2.5000E-02  5.93E-01  1.00E+00 -1.00E+01  1.00E+00  2.50E-02  5.93E-02  1.00E+00
  3   3.7423E-02   3.7423E-02  9.42E-01  1.00E+00 -1.00E+01  1.69E-01  3.74E-02  5.26E-02  1.00E+00
  4   5.0534E-02   5.0534E-02 -1.00E+00  9.20E-01  2.53E-01  1.00E+00  7.15E-02  9.48E-02  8.72E-01
:JACOBIANS    8.685E-01   1.033E-01
  
:NORMS:  1/Froebius, Min, Max, Used   0.7770E+00  0.4014E+00  0.9954E+00  0.9592E+00
:INFO :  Number of Memory Steps    3 Skipping    0
:INFO :  SLambda=    1.5637385301  Max    1.5637385301
:PREDicted Charge, CTotal, PW Trust    1.059E-01   2.643E-01   1.249E-01
:PREDicted DMix, Beta, BLim   2.0395E-01  1.9611E+00  3.9829E-01

Eigenvalues, unscaled except for SY+YY
   #     SY Real        SY Imag          SS             YY         SY+YY Real      SY+YY Imag
   1   1.768232E+00   0.000000E+00   1.752068E+00   1.904434E+00   4.629012E+00   0.000000E+00
   2   1.722422E-14   0.000000E+00   5.930245E-02   1.094978E+00   6.070376E-04   0.000000E+00
   3   2.187837E-01   0.000000E+00  -3.406156E-16   5.871864E-04   1.477554E+00   0.000000E+00
 
:INFO :  Singular value  4.629E+00 Weight  1.000E+00 Projection -9.422E-02
:INFO :  Singular value  1.478E+00 Weight  1.000E+00 Projection -6.776E-01
:INFO :  Singular value  6.070E-04 Weight  9.104E-01 Projection  3.115E+01
:RANK :  ACTIVE   2.91/3  =  97.01 % ; YY RANK   2.90/3  =  96.83 %
 
:BLIM :  VZERO Control Off
:TRUST:  Step 3.76E-01  Charge 8.25E-02 (e) CTO  2.64E-01 (e) PW  3.85E-01 (e)
:DTRUS:  Lambda    3.327E+01 Increment    7.276E-12 Iterations   148 DMIX    9.624E-02
:INFOA:  Angle SubSpace to MSR1      5.71
:DIRM :  MEMORY  3/8  SCALE   1.000 RED  0.88 PRED  0.92 NEXT  0.57 
:INFO :  Limited by Atoms F by Step T

:TRAVE:  Charge 5.25E-02 (e) CTO  1.07E-01 (e) PW  4.77E-02 (e)
:DIRP :  |MSR1|= 6.811E-02 |PRATT|= 3.926E-01 ANGLE=   6.8 DEGREES
:DIRQ :  |MSR1|= 1.221E-01 |PRATT|= 1.095E+00 ANGLE=  31.5 DEGREES
:DIRT :  |MSR1|= 1.399E-01 |PRATT|= 1.163E+00 ANGLE=  30.2 DEGREES
:MIX  :   MSE1   REGULARIZATION:  1.90E-04 GREED: 0.12304  LMStep 0.58  0.1202 Charge         
     
       CHARGES OF MIXED CHARGE DENSITY
:CTO   : INTERSTITIAL CHARGE =     4.056800
:CPC   : PW Pseudocharge     =    11.899577
:CTO001: CHARGE SPHERE  1    =    25.259968
:CTO002: CHARGE SPHERE  2    =    25.259968
:CTO003: CHARGE SPHERE  3    =    43.711632

:NEC03: NUCLEAR AND ELECTRONIC CHARGE    142.00000   142.00000

PW CHANGE     H    K    L      Current       Change    Residue
:PTO001:      0    0    0  4.45621267E-02 -1.952E-05  1.058E-03
:PTO002:     -1   -1   -1 -3.84869512E-10 -3.883E-10 -6.067E-10
:PTO003:      0    0   -2 -1.70692703E-02  1.154E-03  6.773E-03
:PTO004:      0   -2   -2  4.14709164E-03 -1.685E-03 -8.955E-03
:PTO005:     -1   -1   -3  3.35805014E-10  2.747E-10 -9.696E-11
:PTO006:     -2   -2   -2  5.24442961E-03 -3.130E-04 -1.953E-03
:PTO007:      0    0   -4 -1.79363458E-02  1.248E-03  6.852E-03
:PTO008:     -1   -3   -3  4.49144201E-10  4.784E-10  9.471E-10
:PTO009:      0   -2   -4  2.08067735E-02 -2.179E-03 -1.249E-02
:PTO010:     -2   -2   -4 -4.99898621E-02  6.269E-03  3.635E-02
:PTO011:     -3   -3   -3  1.46166758E-10  1.406E-10  1.612E-10
:PTO012:     -1   -1   -5 -7.57913702E-11 -6.814E-11 -3.364E-11

:ENE  : ********** TOTAL ENERGY IN Ry =       -24232.17798040

 Flat Integration
 New Mode for Coulomb Integral
 Consistent 3/8+Simpson combinations
 Extension of core to zero
 LDM version in phi
 Fifth-order quadrature in outwin


            ---------
:ITE005:  5. ITERATION
            ---------

:NATO :    3 INDEPENDENT AND    4 TOTAL ATOMS IN UNITCELL
       SUBSTANCE: FeRh                                                        

       LATTICE                      = F   
:POT  : POTENTIAL OPTION EX_PBE EC_PBE VX_PBE VC_PBE
:LAT  : LATTICE CONSTANTS= 11.27222 11.27222 11.27222    1.571    1.571    1.571
:VOL  : UNIT CELL VOLUME =     358.07036
       MODE OF CALCULATION IS       = RELA
       NON-SPINPOLARIZED CALCULATION
:IFFT  : FFT-parameters:   90   90   90 Factor: 2.00


   CONVERGENCE PARAMETER FOR PSEUDOCHARGE: NCON=  9
   MAXIMAL VALUE OF RMT(JATOM)*ABSK(NKK) : RK  =29.05063


:VKCOUL :  VK-COUL convergence: 0.574E-07
       ATOMNUMBER=  1 Fe1        VCOUL-ZERO =  0.63405E+00
       ATOMNUMBER=  2 Fe2        VCOUL-ZERO =  0.63405E+00
       ATOMNUMBER=  3 Rh1        VCOUL-ZERO =  0.59212E+00
:FIT001: LUSE= 13 SIGMA OF V-XC FIT FOR ATOM  1  0.3864526E-02
:FIT001: LUSE= 13 SIGMA OF V-XC FIT FOR ATOM  1  0.3864526E-02
:FIT002: LUSE= 13 SIGMA OF V-XC FIT FOR ATOM  2  0.3864526E-02
:FIT002: LUSE= 13 SIGMA OF V-XC FIT FOR ATOM  2  0.3864526E-02
:FIT003: LUSE= 13 SIGMA OF V-XC FIT FOR ATOM  3  0.2628541E-03
:FIT003: LUSE= 13 SIGMA OF V-XC FIT FOR ATOM  3  0.2628541E-03
:DEN  : DENSITY INTEGRAL  =         -9870.78306652   (Ry)
       ELS_POTENTIAL_AT Z=0 and Z=0.5:  -0.17614  -0.17614
       ELS_POTENTIAL_AT Y=0 and Y=0.5:   0.00000   0.00000
:VZERO:v0,v0c,v0x  -0.74090  -0.17614  -0.56476 v5,v5c,v5x  -0.74090  -0.17614  -0.56476
:VZERY:v0,v0c,v0x  -0.78968   0.00000  -0.78968 v5,v5c,v5x  -0.78968   0.00000  -0.78968
:VZERX:v0,v0c,v0x  -0.78968   0.00000  -0.78968 v5,v5c,v5x  -0.78968   0.00000  -0.78968
:LMAX-WF:   10   Non-Spherical LMAX:   4

          ATOMIC SPHERE DEPENDENT PARAMETERS FOR ATOM  Fe1       
:e__0001: OVERALL ENERGY PARAMETER IS    0.5480
          OVERALL BASIS SET ON ATOM IS LAPW
:E1_0001: E( 1)=    0.5480
             APW+lo
:E1_0001: E( 1)=   -3.1736   E(BOTTOM)=   -3.206   E(TOP)=   -3.141  1  2   181
             LOCAL ORBITAL
:E2_0001: E( 2)=    0.6161   E(BOTTOM)=    0.377   E(TOP)=    0.855  0  1   119
             APW+lo
:E0_0001: E( 0)=    0.5480
             APW+lo

          ATOMIC SPHERE DEPENDENT PARAMETERS FOR ATOM  Fe2       
:e__0002: OVERALL ENERGY PARAMETER IS    0.5480
          OVERALL BASIS SET ON ATOM IS LAPW
:E1_0002: E( 1)=    0.5480
             APW+lo
:E1_0002: E( 1)=   -3.1736   E(BOTTOM)=   -3.206   E(TOP)=   -3.141  1  2   163
             LOCAL ORBITAL
:E2_0002: E( 2)=    0.6161   E(BOTTOM)=    0.377   E(TOP)=    0.855  0  1   119
             APW+lo
:E0_0002: E( 0)=    0.5480
             APW+lo

          ATOMIC SPHERE DEPENDENT PARAMETERS FOR ATOM  Rh1       
:e__0003: OVERALL ENERGY PARAMETER IS    0.5480
          OVERALL BASIS SET ON ATOM IS LAPW
:E1_0003: E( 1)=    0.5480
             APW+lo
:E1_0003: E( 1)=   -2.7029   E(BOTTOM)=   -2.799   E(TOP)=   -2.607  2  3   161
             LOCAL ORBITAL
:E2_0003: E( 2)=    0.5480   E(BOTTOM)=    0.128   E(TOP)= -200.000  1 -1    98
             APW+lo
:E0_0003: E( 0)=    0.5480
             APW+lo

       K=   0.00000   0.00000   0.00000            1
:RKM  : MATRIX SIZE   185LOs:  48  RKM= 6.64  WEIGHT= 1.00  PGR:    
       EIGENVALUES ARE:
:EIG00001:      -3.1676595   -3.1676595   -3.1676595   -3.1659208   -3.1659208
:EIG00006:      -3.1659208   -2.6863004   -2.6863004   -2.6863004   -2.6789360
:EIG00011:      -2.6789360   -2.6789360    0.0839824    0.3263600    0.3263600
:EIG00016:       0.3912225    0.3912225    0.3912225    0.5427146    0.5427146
:EIG00021:       0.5427146    0.5504370    0.5504370    0.5504370    0.6984631
:EIG00026:       0.6984631    0.7213596    0.7213596    0.7274231    0.7274231
:EIG00031:       0.7837196    0.7837196    0.7837196    1.2754106    1.3245383
:EIG00036:       1.3245383    1.3245383    1.3416196    1.3416196    1.3416196
:EIG00041:       1.4323905    1.4323905    1.4323905    1.4923352    1.9899103
:EIG00046:       1.9899103    2.0798452    2.1670359    2.1670359    2.1670359
 
       ********************************************************

:KPT   :      NUMBER OF K-POINTS:    47
:GAP (global)   :    0.0    Ry =     0.0   eV (metal)
         Bandranges (emin - emax) and occupancy:
:BAN00022:  22    0.478232    0.602764  2.00000000
:BAN00023:  23    0.481783    0.633671  2.00000000
:BAN00024:  24    0.481783    0.646291  2.00000000
:BAN00025:  25    0.626407    0.698793  2.00000000
:BAN00026:  26    0.643737    0.707400  2.00000000
:BAN00027:  27    0.658946    0.721360  1.97903271
:BAN00028:  28    0.668890    0.721360  1.91428230
:BAN00029:  29    0.691932    0.736953  1.54100245
:BAN00030:  30    0.699984    0.742568  0.55646612
:BAN00031:  31    0.712429    0.783720  0.00930614
:BAN00032:  32    0.722990    0.783720 -0.00008972
:BAN00033:  33    0.733544    0.801070  0.00000000
:BAN00034:  34    0.763282    1.275411  0.00000000
:BAN00035:  35    0.803384    1.324538  0.00000000
:BAN00036:  36    0.807697    1.324538  0.00000000
:BAN00037:  37    1.268300    1.450099  0.00000000
        Energy to separate low and high energystates:    0.03398


:NOE  : NUMBER OF ELECTRONS          =   58.000

:FER  : F E R M I - ENERGY(TETRAH.M.)=   0.7141921148
:GMA  : POTENTIAL AND CHARGE CUT-OFF  12.00 Ry**.5

:POS001: ATOM    1 X,Y,Z = 0.00000 0.00000 0.00000  MULT= 1  ZZ= 26.000  Fe1       

       LMMAX  5
       LM=   0 0  4 0  4 4  6 0  6 4

:CHA001: TOTAL VALENCE CHARGE INSIDE SPHERE   1 =  13.2337    (RMT=  2.4300 )
:PCS001: PARTIAL CHARGES SPHERE =  1 S,P,D,F,      D-EG,D-T2G 
:QTL001: 0.4618 6.4935 6.2085 0.0513 0.0000 0.0000 0.0000 2.4317 3.7768 0.0000 0.0000 0.0000
        Q-s-low E-s-low   Q-p-low E-p-low   Q-d-low E-d-low   Q-f-low E-f-low
:EPL001:  0.0010 -2.6915    5.9902 -3.1665    0.0025 -2.6872    0.0011 -2.6878
        Q-s-hi  E-s-hi    Q-p-hi  E-p-hi    Q-d-hi  E-d-hi    Q-f-hi  E-f-hi 
:EPH001:  0.4608  0.3182    0.5033  0.4636    6.2060  0.5913    0.0502  0.5320

:POS002: ATOM    2 X,Y,Z = 0.50000 0.00000 0.00000  MULT= 1  ZZ= 26.000  Fe2       

       LMMAX  5
       LM=   0 0  4 0  4 4  6 0  6 4

:CHA002: TOTAL VALENCE CHARGE INSIDE SPHERE   2 =  13.2336    (RMT=  2.4300 )
:PCS002: PARTIAL CHARGES SPHERE =  2 S,P,D,F,      D-EG,D-T2G 
:QTL002: 0.4618 6.4935 6.2085 0.0513 0.0000 0.0000 0.0000 2.4316 3.7768 0.0000 0.0000 0.0000
        Q-s-low E-s-low   Q-p-low E-p-low   Q-d-low E-d-low   Q-f-low E-f-low
:EPL002:  0.0010 -2.6915    5.9902 -3.1665    0.0025 -2.6872    0.0011 -2.6878
        Q-s-hi  E-s-hi    Q-p-hi  E-p-hi    Q-d-hi  E-d-hi    Q-f-hi  E-f-hi 
:EPH002:  0.4608  0.3182    0.5033  0.4636    6.2059  0.5913    0.0502  0.5320

:POS003: ATOM    3 X,Y,Z = 0.25000 0.25000 0.25000  MULT= 2  ZZ= 45.000  Rh1       

       LMMAX  6
       LM=   0 0  4 0  4 4  6 0  6 4 -3 2

:CHA003: TOTAL VALENCE CHARGE INSIDE SPHERE   3 =  13.3857    (RMT=  2.4300 )
:PCS003: PARTIAL CHARGES SPHERE =  3 S,P,D,F,      D-EG,D-T2G 
:QTL003: 0.3697 6.3314 6.6291 0.0439 0.0000 0.0000 0.0000 2.5704 4.0587 0.0000 0.0000 0.0000
        Q-s-low E-s-low   Q-p-low E-p-low   Q-d-low E-d-low   Q-f-low E-f-low
:EPL003:  0.0003 -3.0964    5.9598 -2.6832    0.0008 -3.1062    0.0004 -3.1033
        Q-s-hi  E-s-hi    Q-p-hi  E-p-hi    Q-d-hi  E-d-hi    Q-f-hi  E-f-hi 
:EPH003:  0.3694  0.3364    0.3716  0.4929    6.6283  0.5030    0.0436  0.5767

:CHA  : TOTAL VALENCE CHARGE INSIDE UNIT CELL =      58.000000

:SUM  : SUM OF EIGENVALUES =         -52.619862233


        1.ATOM      Fe1                   5 CORE STATES
:1S 001: 1S                -513.067676453 Ry
:2S 001: 2S                 -58.974806850 Ry
:2PP001: 2P*                -50.679059135 Ry
:2P 001: 2P                 -49.761475405 Ry
:3S 001: 3S                  -5.656897311 Ry

        2.ATOM      Fe2                   5 CORE STATES
:1S 002: 1S                -513.067675797 Ry
:2S 002: 2S                 -58.974806226 Ry
:2PP002: 2P*                -50.679058504 Ry
:2P 002: 2P                 -49.761474775 Ry
:3S 002: 3S                  -5.656896870 Ry

        3.ATOM      Rh1                  10 CORE STATES
:1S 003: 1S               -1691.396227066 Ry
:2S 003: 2S                -244.286165917 Ry
:2PP003: 2P*               -226.096596137 Ry
:2P 003: 2P                -215.467215714 Ry
:3S 003: 3S                 -42.815451568 Ry
:3PP003: 3P*                -35.697555222 Ry
:3P 003: 3P                 -33.868782017 Ry
:3DD003: 3D*                -21.271532917 Ry
:3D 003: 3D                 -20.910849481 Ry
:4S 003: 4S                  -5.037867057 Ry
:CINT001 Core Integral Atom   1   11.999232
:CINT002 Core Integral Atom   2   11.999232
:CINT003 Core Integral Atom   3   29.997356

       DENSITY AT NUCLEUS
        JATOM        VALENCE       SEMI-CORE          CORE           TOTAL
:RTO001:   1        6.757142        0.000000    15302.527092    15309.284235
:RTO002:   2        6.757142        0.000000    15302.527088    15309.284231
:RTO003:   3       24.063299        0.000000   155313.229986   155337.293285
     
       CHARGES OF NEW CHARGE DENSITY
:NTO   : INTERSTITIAL CHARGE =     4.761178
:NPC   : PW Pseudocharge     =    11.179575
:NTO001: CHARGE SPHERE  1    =    25.232908
:NTO002: CHARGE SPHERE  2    =    25.232880
:NTO003: CHARGE SPHERE  3    =    43.383074

:NEC01: NUCLEAR AND ELECTRONIC CHARGE    142.00000   141.99311
     
       CHARGES OF OLD CHARGE DENSITY
:OTO   : INTERSTITIAL CHARGE =     4.056800
:OPC   : PW Pseudocharge     =    11.899577
:OTO001: CHARGE SPHERE  1    =    25.259968
:OTO002: CHARGE SPHERE  2    =    25.259968
:OTO003: CHARGE SPHERE  3    =    43.711632

:NEC02: NUCLEAR AND ELECTRONIC CHARGE    142.00000   142.00000
     
       CONVERGENCE TEST
:DTO001: DIFFERENCE IN SPHERE  1 =  0.2902889
:DTO002: DIFFERENCE IN SPHERE  2 =  0.2903172
:DTO003: DIFFERENCE IN SPHERE  3 =  0.4105548

:DIS  :  CHARGE DISTANCE       ( 0.4105548 for atom    3 spin 1)      0.3504289
 PW Mixed is           49
 
******************************************************
* MULTISECANT MIXING VER9 RELEASE 10.4.0              *
* Standard Mode with controls                        *
* Fixed density scale                                *
* Regularization       1.000E-04                     *
* Trust Upper Limit    5.000E+00                     *
* Max Number of Memory Steps    8                    *
******************************************************
 
:PWTMP   1.1765E+02  4.5917E+02  3.5807E+02
:PLANE:  PW TOTAL      1.8164 DISTAN   3.14E-01  1.73E+01 %
:CHARG:  CLM/ATOM    299.8727 DISTAN   2.41E-01  8.05E-02 %
 
Step History
        DMIX         DMIXT        Red     Pred      Trust     Lambda    MagRel    MagAbs     Beta
  1   3.5000E-02   3.5000E-02 -1.00E+00  1.00E+00 -1.00E+01  1.00E+00  3.50E-02  3.50E-02  1.00E+00
  2   2.5000E-02   2.5000E-02  5.93E-01  1.00E+00 -1.00E+01  1.00E+00  2.50E-02  5.93E-02  1.00E+00
  3   3.7423E-02   3.7423E-02  9.42E-01  1.00E+00 -1.00E+01  1.69E-01  3.74E-02  5.26E-02  1.00E+00
  4   5.0534E-02   5.0534E-02  8.78E-01  9.20E-01  2.53E-01  1.56E+00  7.15E-02  9.48E-02  8.72E-01
  5   1.2304E-01   9.6241E-02 -1.00E+00  5.72E-01  3.76E-01  1.00E+00  1.20E-01  1.40E-01  1.00E+00
:JACOBIANS    9.501E-01   2.170E-01
  
:NORMS:  1/Froebius, Min, Max, Used   0.6180E+00  0.3909E+00  0.9977E+00  0.6534E+00
:INFO :  Number of Memory Steps    4 Skipping    0
:INFO :  SLambda=    1.8213583921  Max    1.8213583921
:PREDicted Charge, CTotal, PW Trust    2.449E-01   4.783E-01   2.746E-02
:PREDicted DMix, Beta, BLim   1.4249E-01  1.9928E+00  4.3561E-01

Eigenvalues, unscaled except for SY+YY
   #     SY Real        SY Imag          SS             YY         SY+YY Real      SY+YY Imag
   1   1.375011E+00   0.000000E+00   1.248973E+00   2.925431E+00   5.094781E+00   0.000000E+00
   2   5.746774E-01   0.000000E+00   2.779964E-01   9.462272E-01   2.326438E+00   0.000000E+00
   3   7.183871E-15   0.000000E+00   8.824666E-04   1.282666E-01   9.835903E-05   0.000000E+00
   4   6.586586E-03   0.000000E+00  -1.315985E-16   7.487417E-05   1.417602E-01   0.000000E+00
 
:INFO :  Singular value  5.095E+00 Weight  1.000E+00 Projection -3.214E-01
:INFO :  Singular value  2.327E+00 Weight  1.000E+00 Projection -4.186E-01
:INFO :  Singular value  1.417E-01 Weight  1.000E+00 Projection  1.156E-01
:INFO :  Singular value  9.836E-05 Weight  1.016E-01 Projection -9.366E-01
:RANK :  ACTIVE   3.10/4  =  77.54 % ; YY RANK   3.06/4  =  76.54 %
 
Increasing Charge by   1.511
:BLIM :  VZERO Control Off
:TRUST:  Step 5.02E-01  Charge 1.37E-01 (e) CTO  2.91E-01 (e) PW  3.85E-01 (e)
:DTRUS:  Lambda    2.242E-01 Increment    7.276E-12 Iterations   100 DMIX    1.116E-01
:INFOA:  Angle SubSpace to MSR1      2.27
:DIRM :  MEMORY  4/8  SCALE   1.000 RED  0.68 PRED  0.57 NEXT  0.39 
:TRAVE:  Charge 9.13E-02 (e) CTO  1.99E-01 (e) PW  3.32E-02 (e)
:DIRP :  |MSR1|= 1.377E-01 |PRATT|= 3.140E-01 ANGLE=   3.0 DEGREES
:DIRQ :  |MSR1|= 2.291E-01 |PRATT|= 7.239E-01 ANGLE=  26.5 DEGREES
:DIRT :  |MSR1|= 2.673E-01 |PRATT|= 7.891E-01 ANGLE=  24.7 DEGREES
:MIX  :   MSE1   REGULARIZATION:  2.93E-04 GREED: 0.11253  LMStep 0.91  0.3388 CTotal         
     
       CHARGES OF MIXED CHARGE DENSITY
:CTO   : INTERSTITIAL CHARGE =     4.347530
:CPC   : PW Pseudocharge     =    11.551884
:CTO001: CHARGE SPHERE  1    =    25.244662
:CTO002: CHARGE SPHERE  2    =    25.244655
:CTO003: CHARGE SPHERE  3    =    43.581576

:NEC03: NUCLEAR AND ELECTRONIC CHARGE    142.00000   142.00000

PW CHANGE     H    K    L      Current       Change    Residue
:PTO001:      0    0    0  4.44030440E-02 -1.591E-04  2.076E-05
:PTO002:     -1   -1   -1  6.97876271E-09  7.364E-09  2.722E-08
:PTO003:      0    0   -2 -1.50474437E-02  2.022E-03  4.665E-03
:PTO004:      0   -2   -2  1.43446681E-03 -2.713E-03 -6.402E-03
:PTO005:     -1   -1   -3  7.20282182E-10  3.845E-10 -2.618E-10
:PTO006:     -2   -2   -2  4.62444005E-03 -6.200E-04 -1.302E-03
:PTO007:      0    0   -4 -1.52619292E-02  2.674E-03  5.784E-03
:PTO008:     -1   -3   -3 -1.04715322E-08 -1.092E-08 -3.980E-08
:PTO009:      0   -2   -4  1.64796389E-02 -4.327E-03 -9.580E-03
:PTO010:     -2   -2   -4 -3.69598075E-02  1.303E-02  2.991E-02
:PTO011:     -3   -3   -3 -1.80741797E-09 -1.954E-09 -7.432E-09
:PTO012:     -1   -1   -5  3.30349377E-10  4.061E-10  1.764E-09

:ENE  : ********** TOTAL ENERGY IN Ry =       -24232.11837459

 Flat Integration
 New Mode for Coulomb Integral
 Consistent 3/8+Simpson combinations
 Extension of core to zero
 LDM version in phi
 Fifth-order quadrature in outwin


            ---------
:ITE006:  6. ITERATION
            ---------

:NATO :    3 INDEPENDENT AND    4 TOTAL ATOMS IN UNITCELL
       SUBSTANCE: FeRh                                                        

       LATTICE                      = F   
:POT  : POTENTIAL OPTION EX_PBE EC_PBE VX_PBE VC_PBE
:LAT  : LATTICE CONSTANTS= 11.27222 11.27222 11.27222    1.571    1.571    1.571
:VOL  : UNIT CELL VOLUME =     358.07036
       MODE OF CALCULATION IS       = RELA
       NON-SPINPOLARIZED CALCULATION
:IFFT  : FFT-parameters:   90   90   90 Factor: 2.00


   CONVERGENCE PARAMETER FOR PSEUDOCHARGE: NCON=  9
   MAXIMAL VALUE OF RMT(JATOM)*ABSK(NKK) : RK  =29.05063


:VKCOUL :  VK-COUL convergence: 0.649E-07
       ATOMNUMBER=  1 Fe1        VCOUL-ZERO =  0.64487E+00
       ATOMNUMBER=  2 Fe2        VCOUL-ZERO =  0.64487E+00
       ATOMNUMBER=  3 Rh1        VCOUL-ZERO =  0.59168E+00
:FIT001: LUSE= 13 SIGMA OF V-XC FIT FOR ATOM  1  0.2645536E-02
:FIT001: LUSE= 13 SIGMA OF V-XC FIT FOR ATOM  1  0.2645536E-02
:FIT002: LUSE= 13 SIGMA OF V-XC FIT FOR ATOM  2  0.2645533E-02
:FIT002: LUSE= 13 SIGMA OF V-XC FIT FOR ATOM  2  0.2645533E-02
:FIT003: LUSE= 13 SIGMA OF V-XC FIT FOR ATOM  3  0.6835658E-03
:FIT003: LUSE= 13 SIGMA OF V-XC FIT FOR ATOM  3  0.6835658E-03
:DEN  : DENSITY INTEGRAL  =         -9857.49820865   (Ry)
       ELS_POTENTIAL_AT Z=0 and Z=0.5:  -0.14015  -0.14015
       ELS_POTENTIAL_AT Y=0 and Y=0.5:   0.00000   0.00000
:VZERO:v0,v0c,v0x  -0.74892  -0.14015  -0.60876 v5,v5c,v5x  -0.74892  -0.14015  -0.60876
:VZERY:v0,v0c,v0x  -0.79508   0.00000  -0.79508 v5,v5c,v5x  -0.79508   0.00000  -0.79508
:VZERX:v0,v0c,v0x  -0.79508   0.00000  -0.79508 v5,v5c,v5x  -0.79508   0.00000  -0.79508
:LMAX-WF:   10   Non-Spherical LMAX:   4

          ATOMIC SPHERE DEPENDENT PARAMETERS FOR ATOM  Fe1       
:e__0001: OVERALL ENERGY PARAMETER IS    0.5254
          OVERALL BASIS SET ON ATOM IS LAPW
:E1_0001: E( 1)=    0.5254
             APW+lo
:E1_0001: E( 1)=   -3.2510   E(BOTTOM)=   -3.282   E(TOP)=   -3.220  1  2   169
             LOCAL ORBITAL
:E2_0001: E( 2)=    0.5549   E(BOTTOM)=    0.328   E(TOP)=    0.782  0  1   116
             APW+lo
:E0_0001: E( 0)=    0.5254
             APW+lo

          ATOMIC SPHERE DEPENDENT PARAMETERS FOR ATOM  Fe2       
:e__0002: OVERALL ENERGY PARAMETER IS    0.5254
          OVERALL BASIS SET ON ATOM IS LAPW
:E1_0002: E( 1)=    0.5254
             APW+lo
:E1_0002: E( 1)=   -3.2510   E(BOTTOM)=   -3.282   E(TOP)=   -3.220  1  2   153
             LOCAL ORBITAL
:E2_0002: E( 2)=    0.5549   E(BOTTOM)=    0.328   E(TOP)=    0.782  0  1   119
             APW+lo
:E0_0002: E( 0)=    0.5254
             APW+lo

          ATOMIC SPHERE DEPENDENT PARAMETERS FOR ATOM  Rh1       
:e__0003: OVERALL ENERGY PARAMETER IS    0.5254
          OVERALL BASIS SET ON ATOM IS LAPW
:E1_0003: E( 1)=    0.5254
             APW+lo
:E1_0003: E( 1)=   -2.7854   E(BOTTOM)=   -2.878   E(TOP)=   -2.692  2  3   153
             LOCAL ORBITAL
:E2_0003: E( 2)=    0.5060   E(BOTTOM)=    0.076   E(TOP)=    0.936  1  2   142
             APW+lo
:E0_0003: E( 0)=    0.5254
             APW+lo

       K=   0.00000   0.00000   0.00000            1
:RKM  : MATRIX SIZE   185LOs:  48  RKM= 6.64  WEIGHT= 1.00  PGR:    
       EIGENVALUES ARE:
:EIG00001:      -3.2453300   -3.2453300   -3.2453300   -3.2437202   -3.2437202
:EIG00006:      -3.2437202   -2.7692506   -2.7692506   -2.7692506   -2.7623239
:EIG00011:      -2.7623239   -2.7623239    0.0659135    0.2809426    0.2809426
:EIG00016:       0.3456963    0.3456963    0.3456963    0.4904167    0.4904167
:EIG00021:       0.4904167    0.4921502    0.4921502    0.4921502    0.6341109
:EIG00026:       0.6341109    0.6538023    0.6538023    0.6607393    0.6607393
:EIG00031:       0.7138336    0.7138336    0.7138336    1.2552895    1.2836151
:EIG00036:       1.2836151    1.2836151    1.3199694    1.3199694    1.3199694
:EIG00041:       1.3936727    1.3936727    1.3936727    1.4624319    1.9484325
:EIG00046:       1.9484325    2.0540815    2.1515489    2.1515489    2.1515489
 
       ********************************************************

:KPT   :      NUMBER OF K-POINTS:    47
:GAP (global)   :    0.0    Ry =     0.0   eV (metal)
         Bandranges (emin - emax) and occupancy:
:BAN00022:  22    0.424534    0.541724  2.00000000
:BAN00023:  23    0.431822    0.573825  2.00000000
:BAN00024:  24    0.431825    0.586032  2.00000000
:BAN00025:  25    0.570009    0.634111  2.00000000
:BAN00026:  26    0.588048    0.640923  2.00000000
:BAN00027:  27    0.597781    0.653802  1.98784075
:BAN00028:  28    0.607020    0.653802  1.93473766
:BAN00029:  29    0.628028    0.670911  1.55839651
:BAN00030:  30    0.634902    0.675127  0.51062262
:BAN00031:  31    0.645816    0.713834  0.00846336
:BAN00032:  32    0.656972    0.724630 -0.00006091
:BAN00033:  33    0.666278    0.730551  0.00000000
:BAN00034:  34    0.700628    1.255289  0.00000000
:BAN00035:  35    0.739251    1.283615  0.00000000
:BAN00036:  36    0.749536    1.283615  0.00000000
:BAN00037:  37    1.227795    1.411575  0.00000000
        Energy to separate low and high energystates:    0.01591


:NOE  : NUMBER OF ELECTRONS          =   58.000

:FER  : F E R M I - ENERGY(TETRAH.M.)=   0.6486875829
:GMA  : POTENTIAL AND CHARGE CUT-OFF  12.00 Ry**.5

:POS001: ATOM    1 X,Y,Z = 0.00000 0.00000 0.00000  MULT= 1  ZZ= 26.000  Fe1       

       LMMAX  5
       LM=   0 0  4 0  4 4  6 0  6 4

:CHA001: TOTAL VALENCE CHARGE INSIDE SPHERE   1 =  13.2546    (RMT=  2.4300 )
:PCS001: PARTIAL CHARGES SPHERE =  1 S,P,D,F,      D-EG,D-T2G 
:QTL001: 0.4428 6.4410 6.3056 0.0471 0.0000 0.0000 0.0000 2.4872 3.8184 0.0000 0.0000 0.0000
        Q-s-low E-s-low   Q-p-low E-p-low   Q-d-low E-d-low   Q-f-low E-f-low
:EPL001:  0.0010 -2.7742    5.9908 -3.2443    0.0024 -2.7702    0.0010 -2.7710
        Q-s-hi  E-s-hi    Q-p-hi  E-p-hi    Q-d-hi  E-d-hi    Q-f-hi  E-f-hi 
:EPH001:  0.4418  0.2878    0.4503  0.4163    6.3032  0.5344    0.0461  0.4747

:POS002: ATOM    2 X,Y,Z = 0.50000 0.00000 0.00000  MULT= 1  ZZ= 26.000  Fe2       

       LMMAX  5
       LM=   0 0  4 0  4 4  6 0  6 4

:CHA002: TOTAL VALENCE CHARGE INSIDE SPHERE   2 =  13.2568    (RMT=  2.4300 )
:PCS002: PARTIAL CHARGES SPHERE =  2 S,P,D,F,      D-EG,D-T2G 
:QTL002: 0.4427 6.4410 6.3078 0.0472 0.0000 0.0000 0.0000 2.4918 3.8160 0.0000 0.0000 0.0000
        Q-s-low E-s-low   Q-p-low E-p-low   Q-d-low E-d-low   Q-f-low E-f-low
:EPL002:  0.0010 -2.7742    5.9908 -3.2443    0.0024 -2.7702    0.0010 -2.7710
        Q-s-hi  E-s-hi    Q-p-hi  E-p-hi    Q-d-hi  E-d-hi    Q-f-hi  E-f-hi 
:EPH002:  0.4417  0.2878    0.4503  0.4163    6.3055  0.5344    0.0461  0.4747

:POS003: ATOM    3 X,Y,Z = 0.25000 0.25000 0.25000  MULT= 2  ZZ= 45.000  Rh1       

       LMMAX  6
       LM=   0 0  4 0  4 4  6 0  6 4 -3 2

:CHA003: TOTAL VALENCE CHARGE INSIDE SPHERE   3 =  13.5205    (RMT=  2.4300 )
:PCS003: PARTIAL CHARGES SPHERE =  3 S,P,D,F,      D-EG,D-T2G 
:QTL003: 0.3584 6.2944 6.8175 0.0394 0.0000 0.0000 0.0000 2.6922 4.1253 0.0000 0.0000 0.0000
        Q-s-low E-s-low   Q-p-low E-p-low   Q-d-low E-d-low   Q-f-low E-f-low
:EPL003:  0.0003 -3.1765    5.9619 -2.7663    0.0007 -3.1859    0.0004 -3.1826
        Q-s-hi  E-s-hi    Q-p-hi  E-p-hi    Q-d-hi  E-d-hi    Q-f-hi  E-f-hi 
:EPH003:  0.3581  0.3043    0.3325  0.4464    6.8168  0.4490    0.0390  0.5202

:CHA  : TOTAL VALENCE CHARGE INSIDE UNIT CELL =      58.000000

:SUM  : SUM OF EIGENVALUES =         -56.292082316


        1.ATOM      Fe1                   5 CORE STATES
:1S 001: 1S                -513.192523852 Ry
:2S 001: 2S                 -59.101771522 Ry
:2PP001: 2P*                -50.806477589 Ry
:2P 001: 2P                 -49.888834258 Ry
:3S 001: 3S                  -5.738886854 Ry

        2.ATOM      Fe2                   5 CORE STATES
:1S 002: 1S                -513.192538024 Ry
:2S 002: 2S                 -59.101785224 Ry
:2PP002: 2P*                -50.806491413 Ry
:2P 002: 2P                 -49.888848070 Ry
:3S 002: 3S                  -5.738896544 Ry

        3.ATOM      Rh1                  10 CORE STATES
:1S 003: 1S               -1691.513912671 Ry
:2S 003: 2S                -244.403808643 Ry
:2PP003: 2P*               -226.214467329 Ry
:2P 003: 2P                -215.585031183 Ry
:3S 003: 3S                 -42.925987397 Ry
:3PP003: 3P*                -35.808256964 Ry
:3P 003: 3P                 -33.979220045 Ry
:3DD003: 3D*                -21.382812630 Ry
:3D 003: 3D                 -21.022035480 Ry
:4S 003: 4S                  -5.127241888 Ry
:CINT001 Core Integral Atom   1   11.999271
:CINT002 Core Integral Atom   2   11.999271
:CINT003 Core Integral Atom   3   29.997466

       DENSITY AT NUCLEUS
        JATOM        VALENCE       SEMI-CORE          CORE           TOTAL
:RTO001:   1        6.420391        0.000000    15303.538753    15309.959144
:RTO002:   2        6.419166        0.000000    15303.538847    15309.958014
:RTO003:   3       23.221340        0.000000   155315.635088   155338.856428
     
       CHARGES OF NEW CHARGE DENSITY
:NTO   : INTERSTITIAL CHARGE =     4.447499
:NPC   : PW Pseudocharge     =    10.688845
:NTO001: CHARGE SPHERE  1    =    25.253902
:NTO002: CHARGE SPHERE  2    =    25.256066
:NTO003: CHARGE SPHERE  3    =    43.517972

:NEC01: NUCLEAR AND ELECTRONIC CHARGE    142.00000   141.99341
     
       CHARGES OF OLD CHARGE DENSITY
:OTO   : INTERSTITIAL CHARGE =     4.347530
:OPC   : PW Pseudocharge     =    11.551884
:OTO001: CHARGE SPHERE  1    =    25.244662
:OTO002: CHARGE SPHERE  2    =    25.244655
:OTO003: CHARGE SPHERE  3    =    43.581576

:NEC02: NUCLEAR AND ELECTRONIC CHARGE    142.00000   142.00000
     
       CONVERGENCE TEST
:DTO001: DIFFERENCE IN SPHERE  1 =  0.1613940
:DTO002: DIFFERENCE IN SPHERE  2 =  0.1632382
:DTO003: DIFFERENCE IN SPHERE  3 =  0.1013093

:DIS  :  CHARGE DISTANCE       ( 0.1632382 for atom    2 spin 1)      0.1318127
 PW Mixed is           49
 
******************************************************
* MULTISECANT MIXING VER9 RELEASE 10.4.0              *
* Standard Mode with controls                        *
* Fixed density scale                                *
* Regularization       1.000E-04                     *
* Trust Upper Limit    5.000E+00                     *
* Max Number of Memory Steps    8                    *
******************************************************
 
:PWTMP   1.1765E+02  4.5917E+02  3.5807E+02
:PLANE:  PW TOTAL      1.7728 DISTAN   1.88E-01  1.06E+01 %
:CHARG:  CLM/ATOM    299.8675 DISTAN   9.54E-02  3.18E-02 %
 
Step History
        DMIX         DMIXT        Red     Pred      Trust     Lambda    MagRel    MagAbs     Beta
  1   3.5000E-02   3.5000E-02 -1.00E+00  1.00E+00 -1.00E+01  1.00E+00  3.50E-02  3.50E-02  1.00E+00
  2   2.5000E-02   2.5000E-02  5.93E-01  1.00E+00 -1.00E+01  1.00E+00  2.50E-02  5.93E-02  1.00E+00
  3   3.7423E-02   3.7423E-02  9.42E-01  1.00E+00 -1.00E+01  1.69E-01  3.74E-02  5.26E-02  1.00E+00
  4   5.0534E-02   5.0534E-02  8.78E-01  9.20E-01  2.53E-01  1.56E+00  7.15E-02  9.48E-02  8.72E-01
  5   1.2304E-01   9.6241E-02  6.78E-01  5.72E-01  3.76E-01  1.82E+00  1.20E-01  1.40E-01  1.00E+00
  6   1.1253E-01   1.1163E-01 -1.00E+00  3.88E-01  5.02E-01  1.00E+00  3.39E-01  2.67E-01  1.00E+00
:JACOBIANS    1.067E+00   3.882E-01
  
:NORMS:  1/Froebius, Min, Max, Used   0.4987E+00  0.4396E+00  0.9977E+00  0.5135E+00
:INFO :  Number of Memory Steps    5 Skipping    0
:INFO :  SLambda=    1.1050968366  Max    1.1050968366
:PREDicted Charge, CTotal, PW Trust    1.478E-01   3.793E-01   1.645E-01
[...]
  4   5.0534E-02   5.0534E-02  8.78E-01  9.20E-01  2.53E-01  1.56E+00  7.15E-02  9.48E-02  8.72E-01
  5   1.2304E-01   9.6241E-02  6.78E-01  5.72E-01  3.76E-01  1.82E+00  1.20E-01  1.40E-01  1.00E+00
  6   1.1253E-01   1.1163E-01  4.34E-01  3.88E-01  5.02E-01  1.11E+00  3.39E-01  2.67E-01  1.00E+00
  7   2.1572E-01   2.1572E-01  8.27E-01  3.97E-01  6.69E-01  1.66E+00  5.40E-01  1.85E-01  1.00E+00
  8   1.7742E-01   1.7742E-01  5.00E+00  4.89E-01  3.08E+00  2.49E+00  1.46E-01  4.13E-02  1.00E+00
  9   1.0462E-01   1.0462E-01  1.80E-01  1.89E-01  1.14E+00  2.39E+00  1.72E-02  2.56E-02  8.20E-01
 10   1.0679E-01   1.0679E-01  3.82E-01  2.75E-01  1.41E+00  2.66E+00  5.28E-02  1.41E-02  1.00E+00
 11   2.3426E-01   2.3426E-01 -1.00E+00  4.65E-01  1.79E+00  1.00E+00  3.62E-01  3.70E-02  1.00E+00
:JACOBIANS    1.474E+00   1.381E+00
  
:NORMS:  1/Froebius, Min, Max, Used   0.5003E+00  0.3979E+00  0.9911E+00  0.6667E+00
:INFO :  Number of Memory Steps    8 Skipping    2
:INFO :  SLambda=    2.5129882912  Max    2.5129882912
:PREDicted Charge, CTotal, PW Trust    2.216E-02   2.671E-02   3.897E-02
:PREDicted DMix, Beta, BLim   2.8350E-01  1.1913E+00  3.4432E+00

Eigenvalues, unscaled except for SY+YY
   #     SY Real        SY Imag          SS             YY         SY+YY Real      SY+YY Imag
   1   1.723604E+00   0.000000E+00   1.520437E+00   3.420671E+00   7.564057E+00   0.000000E+00
   2   4.568688E-01   0.000000E+00   3.515174E-01   3.012348E+00   3.177785E+00   0.000000E+00
   3   2.818407E-01   0.000000E+00   1.259459E-01   1.035683E+00   2.329642E+00   0.000000E+00
   4   4.231772E-02   0.000000E+00   3.354256E-03   3.636982E-01   1.028522E+00   0.000000E+00
   5   7.340156E-03   0.000000E+00   4.869429E-04   1.602712E-01   2.046506E-01   0.000000E+00
   6   1.532659E-03   0.000000E+00   2.308762E-04   3.623573E-03   6.807945E-03   0.000000E+00
   7   5.834122E-04   0.000000E+00   7.493301E-05   2.179288E-03   4.409014E-03   0.000000E+00
   8   2.157076E-04   0.000000E+00   1.847997E-05   1.525767E-03   2.541824E-03   0.000000E+00
 
:INFO :  Singular value  7.607E+00 Weight  1.000E+00 Projection  9.040E-03
:INFO :  Singular value  3.221E+00 Weight  1.000E+00 Projection  4.500E-02
:INFO :  Singular value  2.314E+00 Weight  1.000E+00 Projection -5.233E-02
:INFO :  Singular value  1.026E+00 Weight  1.000E+00 Projection -7.170E-02
:INFO :  Singular value  2.027E-01 Weight  1.000E+00 Projection  1.139E-01
:INFO :  Singular value  6.810E-03 Weight  9.975E-01 Projection  1.051E-01
:INFO :  Singular value  4.424E-03 Weight  9.941E-01 Projection  5.932E-02
:INFO :  Singular value  2.532E-03 Weight  9.821E-01 Projection -1.986E-02
:RANK :  ACTIVE   7.97/8  =  99.67 % ; YY RANK   7.92/8  =  98.99 %
 
:BLIM :  VZERO Control Off
:TRUST:  Step 1.75E+00  Charge 6.25E-02 (e) CTO  1.51E-01 (e) PW  1.51E-01 (e)
:DIRM :  MEMORY  8/8  SCALE   1.000 RED  1.33 PRED  0.47 NEXT  0.13 
:TRAVE:  Charge 9.92E-03 (e) CTO  1.44E-02 (e) PW  1.76E-02 (e)
:DIRP :  |MSR1|= 4.025E-03 |PRATT|= 5.119E-03 ANGLE=  47.3 DEGREES
:DIRQ :  |MSR1|= 1.367E-02 |PRATT|= 1.363E-01 ANGLE=  57.2 DEGREES
:DIRT :  |MSR1|= 1.425E-02 |PRATT|= 1.364E-01 ANGLE=  58.3 DEGREES
:MIX  :   MSE1   REGULARIZATION:  3.42E-04 GREED: 0.23064  Newton 1.00  0.1044                
     
       CHARGES OF MIXED CHARGE DENSITY
:CTO   : INTERSTITIAL CHARGE =     4.451280
:CPC   : PW Pseudocharge     =    10.698158
:CTO001: CHARGE SPHERE  1    =    25.196388
:CTO002: CHARGE SPHERE  2    =    25.196334
:CTO003: CHARGE SPHERE  3    =    43.577999

:NEC03: NUCLEAR AND ELECTRONIC CHARGE    142.00000   142.00000

PW CHANGE     H    K    L      Current       Change    Residue
:PTO001:      0    0    0  4.23085518E-02 -7.324E-05 -7.534E-05
:PTO002:     -1   -1   -1 -1.19918059E-06 -1.770E-07  9.236E-05
:PTO003:      0    0   -2 -1.32237978E-02  3.417E-05  1.871E-04
:PTO004:      0   -2   -2 -4.06106961E-04  3.545E-05  9.802E-05
:PTO005:     -1   -1   -3 -6.05660739E-07 -4.115E-07 -9.494E-07
:PTO006:     -2   -2   -2  4.33086805E-03  7.712E-06 -4.783E-05
:PTO007:      0    0   -4 -1.17354194E-02  4.236E-05 -2.909E-05
:PTO008:     -1   -3   -3 -1.61504470E-06 -2.205E-06 -1.398E-04
:PTO009:      0   -2   -4  1.17955438E-02 -4.907E-05 -9.724E-05
:PTO010:     -2   -2   -4 -2.01361035E-02  2.962E-04  1.586E-04
:PTO011:     -3   -3   -3 -3.69736326E-07 -5.008E-07 -2.502E-05
:PTO012:     -1   -1   -5  5.80955411E-07 -2.767E-07 -1.474E-06

:ENE  : ********** TOTAL ENERGY IN Ry =       -24232.07387851

 Flat Integration
 New Mode for Coulomb Integral
 Consistent 3/8+Simpson combinations
 Extension of core to zero
 LDM version in phi
 Fifth-order quadrature in outwin


            ---------
:ITE012: 12. ITERATION
            ---------

:NATO :    3 INDEPENDENT AND    4 TOTAL ATOMS IN UNITCELL
       SUBSTANCE: FeRh                                                        

       LATTICE                      = F   
:POT  : POTENTIAL OPTION EX_PBE EC_PBE VX_PBE VC_PBE
:LAT  : LATTICE CONSTANTS= 11.27222 11.27222 11.27222    1.571    1.571    1.571
:VOL  : UNIT CELL VOLUME =     358.07036
       MODE OF CALCULATION IS       = RELA
       NON-SPINPOLARIZED CALCULATION
:IFFT  : FFT-parameters:   90   90   90 Factor: 2.00


   CONVERGENCE PARAMETER FOR PSEUDOCHARGE: NCON=  9
   MAXIMAL VALUE OF RMT(JATOM)*ABSK(NKK) : RK  =29.05063


:VKCOUL :  VK-COUL convergence: 0.788E-07
       ATOMNUMBER=  1 Fe1        VCOUL-ZERO =  0.61925E+00
       ATOMNUMBER=  2 Fe2        VCOUL-ZERO =  0.61925E+00
       ATOMNUMBER=  3 Rh1        VCOUL-ZERO =  0.57221E+00
:FIT001: LUSE= 13 SIGMA OF V-XC FIT FOR ATOM  1  0.2154145E-02
:FIT001: LUSE= 13 SIGMA OF V-XC FIT FOR ATOM  1  0.2154145E-02
:FIT002: LUSE= 13 SIGMA OF V-XC FIT FOR ATOM  2  0.2153953E-02
:FIT002: LUSE= 13 SIGMA OF V-XC FIT FOR ATOM  2  0.2153953E-02
:FIT003: LUSE= 13 SIGMA OF V-XC FIT FOR ATOM  3  0.1003360E-02
:FIT003: LUSE= 13 SIGMA OF V-XC FIT FOR ATOM  3  0.1003360E-02
:DEN  : DENSITY INTEGRAL  =         -9853.51756180   (Ry)
       ELS_POTENTIAL_AT Z=0 and Z=0.5:  -0.16035  -0.16035
       ELS_POTENTIAL_AT Y=0 and Y=0.5:   0.00000   0.00000
:VZERO:v0,v0c,v0x  -0.80548  -0.16035  -0.64513 v5,v5c,v5x  -0.80548  -0.16035  -0.64513
:VZERY:v0,v0c,v0x  -0.78947   0.00000  -0.78947 v5,v5c,v5x  -0.78947   0.00000  -0.78947
:VZERX:v0,v0c,v0x  -0.78947   0.00000  -0.78947 v5,v5c,v5x  -0.78947   0.00000  -0.78947
:LMAX-WF:   10   Non-Spherical LMAX:   4

          ATOMIC SPHERE DEPENDENT PARAMETERS FOR ATOM  Fe1       
:e__0001: OVERALL ENERGY PARAMETER IS    0.4194
          OVERALL BASIS SET ON ATOM IS LAPW
:E1_0001: E( 1)=    0.4194
             APW+lo
:E1_0001: E( 1)=   -3.2806   E(BOTTOM)=   -3.312   E(TOP)=   -3.250  1  2   169
             LOCAL ORBITAL
:E2_0001: E( 2)=    0.5242   E(BOTTOM)=    0.296   E(TOP)=    0.752  0  1   122
             APW+lo
:E0_0001: E( 0)=    0.4194
             APW+lo

          ATOMIC SPHERE DEPENDENT PARAMETERS FOR ATOM  Fe2       
:e__0002: OVERALL ENERGY PARAMETER IS    0.4194
          OVERALL BASIS SET ON ATOM IS LAPW
:E1_0002: E( 1)=    0.4194
             APW+lo
:E1_0002: E( 1)=   -3.2807   E(BOTTOM)=   -3.312   E(TOP)=   -3.250  1  2   148
             LOCAL ORBITAL
:E2_0002: E( 2)=    0.5241   E(BOTTOM)=    0.296   E(TOP)=    0.752  0  1   121
             APW+lo
:E0_0002: E( 0)=    0.4194
             APW+lo

          ATOMIC SPHERE DEPENDENT PARAMETERS FOR ATOM  Rh1       
:e__0003: OVERALL ENERGY PARAMETER IS    0.4194
          OVERALL BASIS SET ON ATOM IS LAPW
:E1_0003: E( 1)=    0.4194
             APW+lo
:E1_0003: E( 1)=   -2.8223   E(BOTTOM)=   -2.915   E(TOP)=   -2.730  2  3   152
             LOCAL ORBITAL
:E2_0003: E( 2)=    0.4717   E(BOTTOM)=    0.043   E(TOP)=    0.901  1  2   141
             APW+lo
:E0_0003: E( 0)=    0.4194
             APW+lo

       K=   0.00000   0.00000   0.00000            1
:RKM  : MATRIX SIZE   185LOs:  48  RKM= 6.64  WEIGHT= 1.00  PGR:    
       EIGENVALUES ARE:
:EIG00001:      -3.2749926   -3.2749926   -3.2749926   -3.2733799   -3.2733799
:EIG00006:      -3.2733799   -2.8062109   -2.8062109   -2.8062109   -2.7993338
:EIG00011:      -2.7993338   -2.7993338    0.0347372    0.2489076    0.2489076
:EIG00016:       0.3125499    0.3125499    0.3125499    0.4572202    0.4572202
:EIG00021:       0.4572202    0.4610150    0.4610150    0.4610150    0.6026449
:EIG00026:       0.6026449    0.6195137    0.6195137    0.6303813    0.6303813
:EIG00031:       0.6818751    0.6818751    0.6818751    1.2234040    1.2537363
:EIG00036:       1.2537363    1.2537363    1.2880643    1.2880643    1.2880643
:EIG00041:       1.3611359    1.3611359    1.3611359    1.4302046    1.9177374
:EIG00046:       1.9177374    2.0243238
 
       ********************************************************

:KPT   :      NUMBER OF K-POINTS:    47
:GAP (global)   :    0.0    Ry =     0.0   eV (metal)
         Bandranges (emin - emax) and occupancy:
:BAN00022:  22    0.391767    0.507861  2.00000000
:BAN00023:  23    0.399304    0.541640  2.00000000
:BAN00024:  24    0.399329    0.554972  2.00000000
:BAN00025:  25    0.538769    0.602645  2.00000000
:BAN00026:  26    0.556862    0.607849  2.00000000
:BAN00027:  27    0.566259    0.619514  1.99835327
:BAN00028:  28    0.575422    0.619514  1.99428215
:BAN00029:  29    0.596804    0.639221  1.54332166
:BAN00030:  30    0.603935    0.642942  0.45880197
:BAN00031:  31    0.611556    0.682277  0.00535309
:BAN00032:  32    0.626604    0.693716 -0.00011214
:BAN00033:  33    0.634444    0.698739  0.00000000
:BAN00034:  34    0.668823    1.223404  0.00000000
:BAN00035:  35    0.707381    1.253736  0.00000000
:BAN00036:  36    0.715898    1.253736  0.00000000
:BAN00037:  37    1.195991    1.380048  0.00000000
        Energy to separate low and high energystates:   -0.01526


:NOE  : NUMBER OF ELECTRONS          =   58.000

:FER  : F E R M I - ENERGY(TETRAH.M.)=   0.6166479881
:GMA  : POTENTIAL AND CHARGE CUT-OFF  12.00 Ry**.5

:POS001: ATOM    1 X,Y,Z = 0.00000 0.00000 0.00000  MULT= 1  ZZ= 26.000  Fe1       

       LMMAX  5
       LM=   0 0  4 0  4 4  6 0  6 4

:CHA001: TOTAL VALENCE CHARGE INSIDE SPHERE   1 =  13.1826    (RMT=  2.4300 )
:PCS001: PARTIAL CHARGES SPHERE =  1 S,P,D,F,      D-EG,D-T2G 
:QTL001: 0.4424 6.4390 6.2360 0.0470 0.0000 0.0000 0.0000 2.4402 3.7958 0.0000 0.0000 0.0000
        Q-s-low E-s-low   Q-p-low E-p-low   Q-d-low E-d-low   Q-f-low E-f-low
:EPL001:  0.0009 -2.8112    5.9907 -3.2739    0.0024 -2.8072    0.0010 -2.8080
        Q-s-hi  E-s-hi    Q-p-hi  E-p-hi    Q-d-hi  E-d-hi    Q-f-hi  E-f-hi 
:EPH001:  0.4414  0.2561    0.4483  0.3839    6.2336  0.5025    0.0460  0.4414

:POS002: ATOM    2 X,Y,Z = 0.50000 0.00000 0.00000  MULT= 1  ZZ= 26.000  Fe2       

       LMMAX  5
       LM=   0 0  4 0  4 4  6 0  6 4

:CHA002: TOTAL VALENCE CHARGE INSIDE SPHERE   2 =  13.1906    (RMT=  2.4300 )
:PCS002: PARTIAL CHARGES SPHERE =  2 S,P,D,F,      D-EG,D-T2G 
:QTL002: 0.4423 6.4390 6.2440 0.0470 0.0000 0.0000 0.0000 2.4491 3.7950 0.0000 0.0000 0.0000
        Q-s-low E-s-low   Q-p-low E-p-low   Q-d-low E-d-low   Q-f-low E-f-low
:EPL002:  0.0009 -2.8112    5.9907 -3.2740    0.0024 -2.8072    0.0010 -2.8080
        Q-s-hi  E-s-hi    Q-p-hi  E-p-hi    Q-d-hi  E-d-hi    Q-f-hi  E-f-hi 
:EPH002:  0.4414  0.2560    0.4483  0.3839    6.2417  0.5026    0.0460  0.4415

:POS003: ATOM    3 X,Y,Z = 0.25000 0.25000 0.25000  MULT= 2  ZZ= 45.000  Rh1       

       LMMAX  6
       LM=   0 0  4 0  4 4  6 0  6 4 -3 2

:CHA003: TOTAL VALENCE CHARGE INSIDE SPHERE   3 =  13.5940    (RMT=  2.4300 )
:PCS003: PARTIAL CHARGES SPHERE =  3 S,P,D,F,      D-EG,D-T2G 
:QTL003: 0.3585 6.2945 6.8910 0.0393 0.0000 0.0000 0.0000 2.7486 4.1424 0.0000 0.0000 0.0000
        Q-s-low E-s-low   Q-p-low E-p-low   Q-d-low E-d-low   Q-f-low E-f-low
:EPL003:  0.0003 -3.2082    5.9622 -2.8033    0.0007 -3.2173    0.0004 -3.2135
        Q-s-hi  E-s-hi    Q-p-hi  E-p-hi    Q-d-hi  E-d-hi    Q-f-hi  E-f-hi 
:EPH003:  0.3582  0.2732    0.3323  0.4151    6.8902  0.4170    0.0389  0.4887

:CHA  : TOTAL VALENCE CHARGE INSIDE UNIT CELL =      58.000000

:SUM  : SUM OF EIGENVALUES =         -58.187007574


        1.ATOM      Fe1                   5 CORE STATES
:1S 001: 1S                -513.176943967 Ry
:2S 001: 2S                 -59.100648410 Ry
:2PP001: 2P*                -50.802976272 Ry
:2P 001: 2P                 -49.885543482 Ry
:3S 001: 3S                  -5.767936084 Ry

        2.ATOM      Fe2                   5 CORE STATES
:1S 002: 1S                -513.177074035 Ry
:2S 002: 2S                 -59.100780835 Ry
:2PP002: 2P*                -50.803109074 Ry
:2P 002: 2P                 -49.885676239 Ry
:3S 002: 3S                  -5.768029130 Ry

        3.ATOM      Rh1                  10 CORE STATES
:1S 003: 1S               -1691.542228527 Ry
:2S 003: 2S                -244.436712954 Ry
:2PP003: 2P*               -226.246662462 Ry
:2P 003: 2P                -215.617381594 Ry
:3S 003: 3S                 -42.961889756 Ry
:3PP003: 3P*                -35.844022481 Ry
:3P 003: 3P                 -34.015110951 Ry
:3DD003: 3D*                -21.418553981 Ry
:3D 003: 3D                 -21.057814611 Ry
:4S 003: 4S                  -5.165268320 Ry
:CINT001 Core Integral Atom   1   11.999269
:CINT002 Core Integral Atom   2   11.999269
:CINT003 Core Integral Atom   3   29.997494

       DENSITY AT NUCLEUS
        JATOM        VALENCE       SEMI-CORE          CORE           TOTAL
:RTO001:   1        6.433628        0.000000    15302.955180    15309.388808
:RTO002:   2        6.432435        0.000000    15302.956050    15309.388485
:RTO003:   3       23.215301        0.000000   155315.630361   155338.845662
     
       CHARGES OF NEW CHARGE DENSITY
:NTO   : INTERSTITIAL CHARGE =     4.438759
:NPC   : PW Pseudocharge     =    10.691978
:NTO001: CHARGE SPHERE  1    =    25.181912
:NTO002: CHARGE SPHERE  2    =    25.189869
:NTO003: CHARGE SPHERE  3    =    43.591460

:NEC01: NUCLEAR AND ELECTRONIC CHARGE    142.00000   141.99346
     
       CHARGES OF OLD CHARGE DENSITY
:OTO   : INTERSTITIAL CHARGE =     4.451280
:OPC   : PW Pseudocharge     =    10.698158
:OTO001: CHARGE SPHERE  1    =    25.196388
:OTO002: CHARGE SPHERE  2    =    25.196334
:OTO003: CHARGE SPHERE  3    =    43.577999

:NEC02: NUCLEAR AND ELECTRONIC CHARGE    142.00000   142.00000
     
       CONVERGENCE TEST
:DTO001: DIFFERENCE IN SPHERE  1 =  0.0178690
:DTO002: DIFFERENCE IN SPHERE  2 =  0.0087380
:DTO003: DIFFERENCE IN SPHERE  3 =  0.0118093

:DIS  :  CHARGE DISTANCE       ( 0.0178690 for atom    1 spin 1)      0.0125564
 PW Mixed is           49
 
******************************************************
* MULTISECANT MIXING VER9 RELEASE 10.4.0              *
* Standard Mode with controls                        *
* Fixed density scale                                *
* Regularization       1.000E-04                     *
* Trust Upper Limit    5.000E+00                     *
* Max Number of Memory Steps    8                    *
******************************************************
 
:PWTMP   1.1765E+02  4.5917E+02  3.5807E+02
:PLANE:  PW TOTAL      1.6617 DISTAN   2.84E-03  1.71E-01 %
:CHARG:  CLM/ATOM    299.8721 DISTAN   9.38E-03  3.13E-03 %
 
Step History
        DMIX         DMIXT        Red     Pred      Trust     Lambda    MagRel    MagAbs     Beta
  4   5.0534E-02   5.0534E-02  8.78E-01  9.20E-01  2.53E-01  1.56E+00  7.15E-02  9.48E-02  8.72E-01
  5   1.2304E-01   9.6241E-02  6.78E-01  5.72E-01  3.76E-01  1.82E+00  1.20E-01  1.40E-01  1.00E+00
  6   1.1253E-01   1.1163E-01  4.34E-01  3.88E-01  5.02E-01  1.11E+00  3.39E-01  2.67E-01  1.00E+00
  7   2.1572E-01   2.1572E-01  8.27E-01  3.97E-01  6.69E-01  1.66E+00  5.40E-01  1.85E-01  1.00E+00
  8   1.7742E-01   1.7742E-01  5.00E+00  4.89E-01  3.08E+00  2.49E+00  1.46E-01  4.13E-02  1.00E+00
  9   1.0462E-01   1.0462E-01  1.80E-01  1.89E-01  1.14E+00  2.39E+00  1.72E-02  2.56E-02  8.20E-01
 10   1.0679E-01   1.0679E-01  3.82E-01  2.75E-01  1.41E+00  2.66E+00  5.28E-02  1.41E-02  1.00E+00
 11   2.3426E-01   2.3426E-01  1.33E+00  4.65E-01  1.79E+00  2.51E+00  3.62E-01  3.70E-02  1.00E+00
 12   2.3064E-01   2.3064E-01 -1.00E+00  1.28E-01  1.75E+00  1.00E+00  1.04E-01  1.42E-02  1.00E+00
:JACOBIANS    1.085E+00   1.666E+00
  
:NORMS:  1/Froebius, Min, Max, Used   0.4159E+00  0.3342E+00  0.9168E+00  0.5110E+00
:INFO :  Number of Memory Steps    8 Skipping    3
:INFO :  SLambda=    2.9926266903  Max    2.9926266903
:PREDicted Charge, CTotal, PW Trust    5.069E-03   7.912E-03   2.973E-03
:PREDicted DMix, Beta, BLim   1.6126E-01  9.2706E-01  5.9409E-01

Eigenvalues, unscaled except for SY+YY
   #     SY Real        SY Imag          SS             YY         SY+YY Real      SY+YY Imag
   1   1.304324E+00   0.000000E+00   1.061684E+00   4.065250E+00   7.104214E+00   0.000000E+00
   2   3.616437E-01   0.000000E+00   2.383102E-01   2.187984E+00   3.385254E+00   0.000000E+00
   3   2.814003E-01   0.000000E+00   8.240281E-02   1.292022E+00   2.186404E+00   0.000000E+00
   4   3.623981E-02   0.000000E+00   9.885026E-04   3.830069E-01   1.144028E+00   0.000000E+00
   5   5.417356E-03   0.000000E+00   3.070952E-04   6.511054E-02   1.258738E-01   0.000000E+00
   6   2.140273E-04   0.000000E+00   2.750646E-04   3.997306E-03   1.638138E-03   0.000000E+00
   7   6.060658E-04   0.000000E+00   7.783070E-05   1.876191E-03   2.867603E-03   0.000000E+00
   8   4.058979E-04   0.000000E+00   2.206872E-05   7.539029E-04   5.798586E-03   0.000000E+00
 
:INFO :  Singular value  7.131E+00 Weight  1.000E+00 Projection -6.863E-03
:INFO :  Singular value  3.435E+00 Weight  1.000E+00 Projection  8.859E-03
:INFO :  Singular value  2.198E+00 Weight  1.000E+00 Projection -3.937E-03
:INFO :  Singular value  1.122E+00 Weight  1.000E+00 Projection  1.967E-03
:INFO :  Singular value  1.254E-01 Weight  1.000E+00 Projection -3.214E-02
:INFO :  Singular value  5.828E-03 Weight  9.952E-01 Projection -5.991E-02
:INFO :  Singular value  2.867E-03 Weight  9.803E-01 Projection -5.304E-02
:INFO :  Singular value  1.630E-03 Weight  9.414E-01 Projection  2.981E-01
:RANK :  ACTIVE   7.92/8  =  98.96 % ; YY RANK   7.72/8  =  96.50 %
 
:DLIM :  Beta Active  9.453E-01
:BLIM :  VZERO Control Off
:TRUST:  Step 2.33E+00  Charge 5.13E-02 (e) CTO  1.20E-01 (e) PW  1.20E-01 (e)
:DIRM :  MEMORY  8/8  SCALE   1.000 RED  0.21 PRED  0.13 NEXT  0.43 BETA  0.95
:TRAVE:  Charge 5.97E-03 (e) CTO  8.71E-03 (e) PW  1.04E-02 (e)
:DIRP :  |MSR1|= 2.551E-03 |PRATT|= 2.837E-03 ANGLE=  45.6 DEGREES
:DIRQ :  |MSR1|= 4.578E-03 |PRATT|= 2.815E-02 ANGLE=  44.7 DEGREES
:DIRT :  |MSR1|= 5.241E-03 |PRATT|= 2.829E-02 ANGLE=  49.3 DEGREES
:MIX  :   MSE1   REGULARIZATION:  4.07E-04 GREED: 0.18274  Newton 1.00  0.1853                
     
       CHARGES OF MIXED CHARGE DENSITY
:CTO   : INTERSTITIAL CHARGE =     4.448264
:CPC   : PW Pseudocharge     =    10.710821
:CTO001: CHARGE SPHERE  1    =    25.196011
:CTO002: CHARGE SPHERE  2    =    25.195710
:CTO003: CHARGE SPHERE  3    =    43.580008

:NEC03: NUCLEAR AND ELECTRONIC CHARGE    142.00000   142.00000

PW CHANGE     H    K    L      Current       Change    Residue
:PTO001:      0    0    0  4.23354912E-02  2.694E-05  1.003E-05
:PTO002:     -1   -1   -1  2.98716097E-07  1.498E-06 -2.911E-06
:PTO003:      0    0   -2 -1.32774487E-02 -5.365E-05 -7.078E-05
:PTO004:      0   -2   -2 -2.23362809E-04  1.827E-04  1.030E-04
:PTO005:     -1   -1   -3  4.34199047E-08  6.491E-07  2.870E-06
:PTO006:     -2   -2   -2  4.31142786E-03 -1.944E-05  6.778E-06
:PTO007:      0    0   -4 -1.17324996E-02  2.920E-06 -5.942E-05
:PTO008:     -1   -3   -3 -5.95081330E-08  1.556E-06  1.686E-05
:PTO009:      0   -2   -4  1.18188571E-02  2.331E-05  1.137E-04
:PTO010:     -2   -2   -4 -2.02025067E-02 -6.640E-05 -2.091E-04
:PTO011:     -3   -3   -3  3.94544146E-07  7.643E-07  5.100E-06
:PTO012:     -1   -1   -5 -1.03608397E-06 -1.617E-06 -5.770E-06

:ENE  : ********** TOTAL ENERGY IN Ry =       -24232.07372941

