
:LABEL1: Calculations in /home/cmueller/wien/FZU/src/FeRh/AFM/AFM-udu
:LABEL2: on cv036 at Wed Mar 12 12:19:47 PM CET 2025
:LABEL3: using WIEN2k_19.1 (Release 25/6/2019) in /home/cmueller/WIENROOT
:LABEL4: using the command: runsp_lapw
 Flat Integration
 New Mode for Coulomb Integral
 Consistent 3/8+Simpson combinations
 Extension of core to zero
 LDM version in phi
 Fifth-order quadrature in outwin


            ---------
:ITE001:  1. ITERATION
            ---------

:NATO :    3 INDEPENDENT AND    4 TOTAL ATOMS IN UNITCELL
       SUBSTANCE: FeRh                                                        

       LATTICE                      = F   
:POT  : POTENTIAL OPTION EX_PBE EC_PBE VX_PBE VC_PBE
:LAT  : LATTICE CONSTANTS= 11.27222 11.27222 11.27222    1.571    1.571    1.571
:VOL  : UNIT CELL VOLUME =     358.07036
       MODE OF CALCULATION IS       = RELA
       SPINPOLARIZED CALCULATION
:IFFT  : FFT-parameters:   90   90   90 Factor: 2.00


   CONVERGENCE PARAMETER FOR PSEUDOCHARGE: NCON=  9
   MAXIMAL VALUE OF RMT(JATOM)*ABSK(NKK) : RK  =29.05063


:VKCOUL :  VK-COUL convergence: 0.126E-05
       ATOMNUMBER=  1 Fe1        VCOUL-ZERO =  0.65836E+00
       ATOMNUMBER=  2 Fe2        VCOUL-ZERO =  0.65836E+00
       ATOMNUMBER=  3 Rh1        VCOUL-ZERO =  0.62973E+00
:FIT001: LUSE= 13 SIGMA OF V-XC FIT FOR ATOM  1  0.6937203E-02
:FIT001: LUSE= 13 SIGMA OF V-XC FIT FOR ATOM  1  0.1106869E-02
:FIT002: LUSE= 13 SIGMA OF V-XC FIT FOR ATOM  2  0.9417152E-02
:FIT002: LUSE= 13 SIGMA OF V-XC FIT FOR ATOM  2  0.6749023E-02
:FIT003: LUSE= 13 SIGMA OF V-XC FIT FOR ATOM  3  0.1271548E-02
:FIT003: LUSE= 13 SIGMA OF V-XC FIT FOR ATOM  3  0.5379068E-02
:DEN  : DENSITY INTEGRAL  =         -9889.64320125   (Ry)
       ELS_POTENTIAL_AT Z=0 and Z=0.5:  -0.23886  -0.23886
       ELS_POTENTIAL_AT Y=0 and Y=0.5:   0.00000   0.00000
:VZERO:v0,v0c,v0x  -0.96825  -0.23886  -0.72939 v5,v5c,v5x  -0.96825  -0.23886  -0.72939
:VZERY:v0,v0c,v0x  -0.89927   0.00000  -0.89927 v5,v5c,v5x  -0.89927   0.00000  -0.89927
:VZERX:v0,v0c,v0x  -0.89927   0.00000  -0.89927 v5,v5c,v5x  -0.89927   0.00000  -0.89927
:LMAX-WF:   10   Non-Spherical LMAX:   4

          ATOMIC SPHERE DEPENDENT PARAMETERS FOR ATOM  Fe1       
:e__0001: OVERALL ENERGY PARAMETER IS    0.3000
          OVERALL BASIS SET ON ATOM IS LAPW
:E1_0001: E( 1)=    0.3000
             APW+lo
:E1_0001: E( 1)=   -3.1650   E(BOTTOM)=   -3.198   E(TOP)=   -3.132  1  2   176
             LOCAL ORBITAL
:E2_0001: E( 2)=    0.6153   E(BOTTOM)=    0.371   E(TOP)=    0.860  0  1   127
             APW+lo
:E0_0001: E( 0)=    0.3000
             APW+lo

          ATOMIC SPHERE DEPENDENT PARAMETERS FOR ATOM  Fe2       
:e__0002: OVERALL ENERGY PARAMETER IS    0.3000
          OVERALL BASIS SET ON ATOM IS LAPW
:E1_0002: E( 1)=    0.3000
             APW+lo
:E1_0002: E( 1)=   -2.9813   E(BOTTOM)=   -3.016   E(TOP)=   -2.947  1  2   180
             LOCAL ORBITAL
:E2_0002: E( 2)=    0.5239   E(BOTTOM)=    0.524   E(TOP)= -200.000  0 -1    97
             APW+lo
:E0_0002: E( 0)=    0.3000
             APW+lo

          ATOMIC SPHERE DEPENDENT PARAMETERS FOR ATOM  Rh1       
:e__0003: OVERALL ENERGY PARAMETER IS    0.3000
          OVERALL BASIS SET ON ATOM IS LAPW
:E1_0003: E( 1)=    0.3000
             APW+lo
:E1_0003: E( 1)=   -2.6255   E(BOTTOM)=   -2.726   E(TOP)=   -2.525  2  3   171
             LOCAL ORBITAL
:E2_0003: E( 2)=    0.3000   E(BOTTOM)=    0.164   E(TOP)= -200.000  1 -1    92
             APW+lo
:E0_0003: E( 0)=    0.3000
             APW+lo

       K=   0.00000   0.00000   0.00000            1
:RKM  : MATRIX SIZE   185LOs:  48  RKM= 6.64  WEIGHT= 1.00  PGR:    
       EIGENVALUES ARE:
:EIG00001:      -3.1580212   -3.1580212   -3.1580212   -2.9741859   -2.9741859
:EIG00006:      -2.9741859   -2.6084145   -2.6084145   -2.6084145   -2.6002306
:EIG00011:      -2.6002306   -2.6002306    0.0947198    0.3608892    0.3608892
:EIG00016:       0.4250646    0.4250646    0.4250646    0.5585342    0.5585342
:EIG00021:       0.5585342    0.6408048    0.6408048    0.6408048    0.7210715
:EIG00026:       0.7210715    0.7790294    0.7790294    0.8733698    0.8733698
:EIG00031:       0.8744630    0.8744630    0.8744630    1.3067212    1.3560570
:EIG00036:       1.3560570    1.3560570    1.3727980    1.3727980    1.3727980
:EIG00041:       1.4866726    1.4866726    1.4866726    1.5083209
       ********************************************************

:KPT   :      NUMBER OF K-POINTS:    47
:LMAX-WF:   10   Non-Spherical LMAX:   4

          ATOMIC SPHERE DEPENDENT PARAMETERS FOR ATOM  Fe1       
:e__0001: OVERALL ENERGY PARAMETER IS    0.3000
          OVERALL BASIS SET ON ATOM IS LAPW
:E1_0001: E( 1)=    0.3000
             APW+lo
:E1_0001: E( 1)=   -2.9764   E(BOTTOM)=   -3.010   E(TOP)=   -2.942  1  2   199
             LOCAL ORBITAL
:E2_0001: E( 2)=    0.5413   E(BOTTOM)=    0.541   E(TOP)= -200.000  0 -1    97
             APW+lo
:E0_0001: E( 0)=    0.3000
             APW+lo

          ATOMIC SPHERE DEPENDENT PARAMETERS FOR ATOM  Fe2       
:e__0002: OVERALL ENERGY PARAMETER IS    0.3000
          OVERALL BASIS SET ON ATOM IS LAPW
:E1_0002: E( 1)=    0.3000
             APW+lo
:E1_0002: E( 1)=   -3.1611   E(BOTTOM)=   -3.194   E(TOP)=   -3.129  1  2   156
             LOCAL ORBITAL
:E2_0002: E( 2)=    0.6231   E(BOTTOM)=    0.382   E(TOP)=    0.864  0  1   125
             APW+lo
:E0_0002: E( 0)=    0.3000
             APW+lo

          ATOMIC SPHERE DEPENDENT PARAMETERS FOR ATOM  Rh1       
:e__0003: OVERALL ENERGY PARAMETER IS    0.3000
          OVERALL BASIS SET ON ATOM IS LAPW
:E1_0003: E( 1)=    0.3000
             APW+lo
:E1_0003: E( 1)=   -2.5261   E(BOTTOM)=   -2.625   E(TOP)=   -2.427  2  3   176
             LOCAL ORBITAL
:E2_0003: E( 2)=    0.3000   E(BOTTOM)=    0.278   E(TOP)= -200.000  1 -1    87
             APW+lo
:E0_0003: E( 0)=    0.3000
             APW+lo

       K=   0.00000   0.00000   0.00000            1
:RKM  : MATRIX SIZE   185LOs:  48  RKM= 6.64  WEIGHT= 1.00  PGR:    
       EIGENVALUES ARE:
:EIG00001:      -3.1541148   -3.1541148   -3.1541148   -2.9693204   -2.9693204
:EIG00006:      -2.9693204   -2.5091969   -2.5091969   -2.5091969   -2.5013131
:EIG00011:      -2.5013131   -2.5013131    0.1840659    0.4465418    0.4465418
:EIG00016:       0.5263115    0.5263115    0.5263115    0.5952817    0.5952817
:EIG00021:       0.5952817    0.7136424    0.7136424    0.7136424    0.7541678
:EIG00026:       0.7541678    0.8893866    0.8893866    0.8932046    0.8932046
:EIG00031:       0.9239533    0.9239533    0.9239533    1.3547568    1.4399559
:EIG00036:       1.4399559    1.4399559    1.4567976    1.4567976    1.4567976
:EIG00041:       1.5680015    1.5680015    1.5680015    1.6192685
       ********************************************************

:KPT   :      NUMBER OF K-POINTS:    47
:GAP (global)   :    0.0    Ry =     0.0   eV (metal)
:GAP (this spin):    0.0    Ry =     0.0   eV (metal)
         Bandranges (emin - emax) and occupancy:
:BAN00021:  21    0.501524    0.589142  1.00000000
:BAN00022:  22    0.542731    0.648547  1.00000000
:BAN00023:  23    0.544392    0.693266  1.00000000
:BAN00024:  24    0.548324    0.698310  1.00000000
:BAN00025:  25    0.662652    0.721071  1.00000000
:BAN00026:  26    0.698757    0.733408  1.00000000
:BAN00027:  27    0.707391    0.779029  1.00000000
:BAN00028:  28    0.731017    0.779029  1.00000000
:BAN00029:  29    0.737978    0.873370  0.98331689
:BAN00030:  30    0.769263    0.873370  0.79524183
:BAN00031:  31    0.823387    0.874463  0.00131992
:BAN00032:  32    0.839962    0.874463  0.00000000
:BAN00033:  33    0.853867    0.908238  0.00000000
:BAN00034:  34    0.888517    1.306721  0.00000000
:BAN00035:  35    0.891138    1.356057  0.00000000
:BAN00036:  36    0.901816    1.356057  0.00000000
        Energy to separate low and high energystates:    0.04472


:NOE  : NUMBER OF ELECTRONS          =   58.000

:FER  : F E R M I - ENERGY(TETRAH.M.)=   0.8290096504
:GMA  : POTENTIAL AND CHARGE CUT-OFF  12.00 Ry**.5

:POS001: ATOM    1 X,Y,Z = 0.00000 0.00000 0.00000  MULT= 1  ZZ= 26.000  Fe1       

       LMMAX  5
       LM=   0 0  4 0  4 4  6 0  6 4

:CHA001: TOTAL VALENCE CHARGE INSIDE SPHERE   1 =   7.9107    (RMT=  2.4300 )
:PCS001: PARTIAL CHARGES SPHERE =  1 S,P,D,F,      D-EG,D-T2G 
:QTL001: 0.2537 3.3009 4.3162 0.0292 0.0000 0.0000 0.0000 1.7663 2.5499 0.0000 0.0000 0.0000
        Q-s-low E-s-low   Q-p-low E-p-low   Q-d-low E-d-low   Q-f-low E-f-low
:EPL001:  0.0006 -2.6131    2.9951 -3.1577    0.0014 -2.6085    0.0006 -2.6088
        Q-s-hi  E-s-hi    Q-p-hi  E-p-hi    Q-d-hi  E-d-hi    Q-f-hi  E-f-hi 
:EPH001:  0.2531  0.3380    0.3058  0.5122    4.3148  0.6324    0.0286  0.5838

:POS002: ATOM    2 X,Y,Z = 0.50000 0.00000 0.00000  MULT= 1  ZZ= 26.000  Fe2       

       LMMAX  5
       LM=   0 0  4 0  4 4  6 0  6 4

:CHA002: TOTAL VALENCE CHARGE INSIDE SPHERE   2 =   5.1194    (RMT=  2.4300 )
:PCS002: PARTIAL CHARGES SPHERE =  2 S,P,D,F,      D-EG,D-T2G 
:QTL002: 0.2261 3.2646 1.5889 0.0292 0.0000 0.0000 0.0000 0.4087 1.1802 0.0000 0.0000 0.0000
        Q-s-low E-s-low   Q-p-low E-p-low   Q-d-low E-d-low   Q-f-low E-f-low
:EPL002:  0.0005 -2.6137    2.9944 -2.9739    0.0013 -2.6094    0.0006 -2.6099
        Q-s-hi  E-s-hi    Q-p-hi  E-p-hi    Q-d-hi  E-d-hi    Q-f-hi  E-f-hi 
:EPH002:  0.2256  0.3656    0.2702  0.5178    1.5876  0.6605    0.0286  0.5878

:POS003: ATOM    3 X,Y,Z = 0.25000 0.25000 0.25000  MULT= 2  ZZ= 45.000  Rh1       

       LMMAX  6
       LM=   0 0  4 0  4 4  6 0  6 4 -3 2

:CHA003: TOTAL VALENCE CHARGE INSIDE SPHERE   3 =   7.0769    (RMT=  2.4300 )
:PCS003: PARTIAL CHARGES SPHERE =  3 S,P,D,F,      D-EG,D-T2G 
:QTL003: 0.1987 3.1971 3.6511 0.0239 0.0000 0.0000 0.0000 1.4724 2.1787 0.0000 0.0000 0.0000
        Q-s-low E-s-low   Q-p-low E-p-low   Q-d-low E-d-low   Q-f-low E-f-low
:EPL003:  0.0002 -2.9924    2.9785 -2.6049    0.0004 -3.0017    0.0002 -2.9994
        Q-s-hi  E-s-hi    Q-p-hi  E-p-hi    Q-d-hi  E-d-hi    Q-f-hi  E-f-hi 
:EPH003:  0.1985  0.3752    0.2186  0.5488    3.6507  0.5697    0.0237  0.6282

:CHA  : TOTAL VALENCE CHARGE INSIDE UNIT CELL =      29.779879

:SUM  : SUM OF EIGENVALUES =         -23.913589043



   QTL-B VALUE .EQ.    4.73541   in Band of energy    0.85804   ATOM=    2   L=  2
    Most likely no ghostbands, but adjust Energy-parameters for this ATOM and L


:WARN : QTL-B value eq.   4.74 in Band of energy   0.85804  ATOM=    2  L=  2
:WARN : You should change the E-parameter for this atom and L-value in case.in1 (or try the -in1new switch)
:GAP (global)   :    0.0    Ry =     0.0   eV (metal)
:GAP (this spin):    0.0    Ry =     0.0   eV (metal)
         Bandranges (emin - emax) and occupancy:
:BAN00019:  19    0.546267    0.608223  1.00000000
:BAN00020:  20    0.572598    0.659357  1.00000000
:BAN00021:  21    0.574844    0.694578  1.00000000
:BAN00022:  22    0.628966    0.713642  1.00000000
:BAN00023:  23    0.636175    0.734466  1.00000000
:BAN00024:  24    0.636175    0.751553  1.00000000
:BAN00025:  25    0.728574    0.767097  1.00000000
:BAN00026:  26    0.746409    0.773827  1.00000000
:BAN00027:  27    0.761898    0.889387  0.94482823
:BAN00028:  28    0.782637    0.889387  0.86497243
:BAN00029:  29    0.804485    0.893205  0.41032070
:BAN00030:  30    0.851375    0.893205  0.00000000
:BAN00031:  31    0.865196    0.923953  0.00000000
:BAN00032:  32    0.879684    0.923953  0.00000000
:BAN00033:  33    0.899236    0.951061  0.00000000
:BAN00034:  34    0.933659    1.361053  0.00000000
        Energy to separate low and high energystates:    0.13407


:NOE  : NUMBER OF ELECTRONS          =   58.000

:FER  : F E R M I - ENERGY(TETRAH.M.)=   0.8290096504
:GMA  : POTENTIAL AND CHARGE CUT-OFF  12.00 Ry**.5

:POS001: ATOM    1 X,Y,Z = 0.00000 0.00000 0.00000  MULT= 1  ZZ= 26.000  Fe1       

       LMMAX  5
       LM=   0 0  4 0  4 4  6 0  6 4

:CHA001: TOTAL VALENCE CHARGE INSIDE SPHERE   1 =   5.2129    (RMT=  2.4300 )
:PCS001: PARTIAL CHARGES SPHERE =  1 S,P,D,F,      D-EG,D-T2G 
:QTL001: 0.2380 3.2586 1.6828 0.0251 0.0000 0.0000 0.0000 0.3724 1.3104 0.0000 0.0000 0.0000
        Q-s-low E-s-low   Q-p-low E-p-low   Q-d-low E-d-low   Q-f-low E-f-low
:EPL001:  0.0005 -2.5148    2.9947 -2.9690    0.0013 -2.5108    0.0006 -2.5114
        Q-s-hi  E-s-hi    Q-p-hi  E-p-hi    Q-d-hi  E-d-hi    Q-f-hi  E-f-hi 
:EPH001:  0.2374  0.4566    0.2639  0.6009    1.6815  0.6796    0.0246  0.6645

:POS002: ATOM    2 X,Y,Z = 0.50000 0.00000 0.00000  MULT= 1  ZZ= 26.000  Fe2       

       LMMAX  5
       LM=   0 0  4 0  4 4  6 0  6 4

:CHA002: TOTAL VALENCE CHARGE INSIDE SPHERE   2 =   7.8786    (RMT=  2.4300 )
:PCS002: PARTIAL CHARGES SPHERE =  2 S,P,D,F,      D-EG,D-T2G 
:QTL002: 0.2660 3.3017 4.2752 0.0269 0.0000 0.0000 0.0000 1.8070 2.4682 0.0000 0.0000 0.0000
        Q-s-low E-s-low   Q-p-low E-p-low   Q-d-low E-d-low   Q-f-low E-f-low
:EPL002:  0.0006 -2.5144    2.9953 -3.1538    0.0014 -2.5100    0.0006 -2.5105
        Q-s-hi  E-s-hi    Q-p-hi  E-p-hi    Q-d-hi  E-d-hi    Q-f-hi  E-f-hi 
:EPH002:  0.2654  0.4124    0.3065  0.5899    4.2738  0.6418    0.0263  0.6713

:POS003: ATOM    3 X,Y,Z = 0.25000 0.25000 0.25000  MULT= 2  ZZ= 45.000  Rh1       

       LMMAX  6
       LM=   0 0  4 0  4 4  6 0  6 4 -3 2

:CHA003: TOTAL VALENCE CHARGE INSIDE SPHERE   3 =   6.3473    (RMT=  2.4300 )
:PCS003: PARTIAL CHARGES SPHERE =  3 S,P,D,F,      D-EG,D-T2G 
:QTL003: 0.1803 3.1709 2.9702 0.0205 0.0000 0.0000 0.0000 1.0831 1.8871 0.0000 0.0000 0.0000
        Q-s-low E-s-low   Q-p-low E-p-low   Q-d-low E-d-low   Q-f-low E-f-low
:EPL003:  0.0002 -2.9703    2.9789 -2.5058    0.0004 -2.9837    0.0002 -2.9812
        Q-s-hi  E-s-hi    Q-p-hi  E-p-hi    Q-d-hi  E-d-hi    Q-f-hi  E-f-hi 
:EPH003:  0.1801  0.4434    0.1920  0.6069    2.9698  0.6395    0.0203  0.6623

:CHA  : TOTAL VALENCE CHARGE INSIDE UNIT CELL =      28.220121

:SUM  : SUM OF EIGENVALUES =         -23.358906803



   QTL-B VALUE .EQ.    3.50062   in Band of energy    0.87854   ATOM=    3   L=  2
    Most likely no ghostbands, but adjust Energy-parameters for this ATOM and L


:WARN : QTL-B value eq.   3.50 in Band of energy   0.87854  ATOM=    3  L=  2
:WARN : You should change the E-parameter for this atom and L-value in case.in1 (or try the -in1new switch)

        1.ATOM      Fe1                   5 CORE STATES
:1S 001: 1S                -512.918293442 Ry
:2S 001: 2S                 -58.867069964 Ry
:2PP001: 2P*                -50.560139939 Ry
:2P 001: 2P                 -49.643527021 Ry
:3S 001: 3S                  -5.645702712 Ry

        2.ATOM      Fe2                   5 CORE STATES
:1S 002: 1S                -512.917530862 Ry
:2S 002: 2S                 -58.785652618 Ry
:2PP002: 2P*                -50.499469567 Ry
:2P 002: 2P                 -49.581089911 Ry
:3S 002: 3S                  -5.458061119 Ry

        3.ATOM      Rh1                  10 CORE STATES
:1S 003: 1S               -1691.217929689 Ry
:2S 003: 2S                -244.120058089 Ry
:2PP003: 2P*               -225.926902474 Ry
:2P 003: 2P                -215.298220211 Ry
:3S 003: 3S                 -42.657761096 Ry
:3PP003: 3P*                -35.540423361 Ry
:3P 003: 3P                 -33.711907338 Ry
:3DD003: 3D*                -21.116589291 Ry
:3D 003: 3D                 -20.756040431 Ry
:4S 003: 4S                  -4.949566435 Ry

        1.ATOM      Fe1                   5 CORE STATES
:1S 001: 1S                -512.917488182 Ry
:2S 001: 2S                 -58.785219245 Ry
:2PP001: 2P*                -50.499119603 Ry
:2P 001: 2P                 -49.580732129 Ry
:3S 001: 3S                  -5.454153664 Ry

        2.ATOM      Fe2                   5 CORE STATES
:1S 002: 1S                -512.918250765 Ry
:2S 002: 2S                 -58.866658579 Ry
:2PP002: 2P*                -50.559806270 Ry
:2P 002: 2P                 -49.643186094 Ry
:3S 002: 3S                  -5.642573226 Ry

        3.ATOM      Rh1                  10 CORE STATES
:1S 003: 1S               -1691.216786694 Ry
:2S 003: 2S                -244.099258760 Ry
:2PP003: 2P*               -225.911764630 Ry
:2P 003: 2P                -215.282029326 Ry
:3S 003: 3S                 -42.646172097 Ry
:3PP003: 3P*                -35.527023019 Ry
:3P 003: 3P                 -33.698942826 Ry
:3DD003: 3D*                -21.096864575 Ry
:3D 003: 3D                 -20.736378411 Ry
:4S 003: 4S                  -4.856597872 Ry
:CINT001 Core Integral Atom   1 Up    5.999607 Dn   5.999590 Total  11.999197
:CINT002 Core Integral Atom   2 Up    5.999577 Dn   5.999617 Total  11.999194
:CINT003 Core Integral Atom   3 Up   14.998598 Dn  14.998638 Total  29.997236

       DENSITY AT NUCLEUS
        JATOM        VALENCE       SEMI-CORE          CORE           TOTAL
:RTO001:   1        7.304357        0.000000    15301.554035    15308.858392
:RTO002:   2        7.308953        0.000000    15301.542070    15308.851023
:RTO003:   3       24.823477        0.000000   155310.152785   155334.976262

       HYPERFINE FIELDS FOR THOMSON RADIUS
:HFF001:          115.783           0.000        -300.606        -184.822 (KGAUSS)
:HFF002:         -339.126           0.000         246.705         -92.421 (KGAUSS)
:HFF003:          337.730           0.000        -445.974        -108.244 (KGAUSS)
     
       CHARGES OF NEW CHARGE DENSITY
:NTO   : INTERSTITIAL     UP =     2.596012 DN =     2.434020 TOT =     5.030032
:NPC   : PW Pseudocharge  UP =     5.994288 DN =     5.637892 TOT =    11.632180
:NTO001: CHARGE SPHERE  1 UP =    13.910357 DN =    11.212475 TOT =    25.122832
:NTO002: CHARGE SPHERE  2 UP =    11.118937 DN =    13.878252 TOT =    24.997189
:NTO003: CHARGE SPHERE  3 UP =    22.075460 DN =    21.345913 TOT =    43.421373

:NEC01: NUCLEAR AND ELECTRONIC CHARGE    142.00000   141.99280
     
       CHARGES OF OLD CHARGE DENSITY
:OTO   : INTERSTITIAL     UP =     2.442723 DN =     1.361899 TOT =     3.804621
:OPC   : PW Pseudocharge  UP =    11.411737 DN =     7.446093 TOT =    18.857830
:OTO001: CHARGE SPHERE  1 UP =    14.066772 DN =    11.190124 TOT =    25.256897
:OTO002: CHARGE SPHERE  2 UP =    11.527847 DN =    13.729050 TOT =    25.256897
:OTO003: CHARGE SPHERE  3 UP =    22.982475 DN =    20.860099 TOT =    43.842573

:NEC02: NUCLEAR AND ELECTRONIC CHARGE    142.00000   142.00356
     
       CONVERGENCE TEST
:DTO001: DIFFERENCE SPHERE  1 UP =  0.1836974 DN =  0.4994196 TOT =  0.6831170
:DTO002: DIFFERENCE SPHERE  2 UP =  0.6053602 DN =  0.2104313 TOT =  0.8157915
:DTO003: DIFFERENCE SPHERE  3 UP =  0.7113320 DN =  0.2346091 TOT =  0.9459411

:DIS  :  CHARGE DISTANCE       ( 0.7113320 for atom    3 spin 1)      1.6953954
 PW Mixed is           49
 
******************************************************
* MULTISECANT MIXING VER9 RELEASE 10.4.0              *
* Standard Mode with controls                        *
* Fixed density scale                                *
* Regularization       1.000E-04                     *
* Trust Upper Limit    5.000E+00                     *
* Max Number of Memory Steps    8                    *
******************************************************
 
:PWTMP   1.1765E+02  4.5917E+02  3.5807E+02
:PLANE:  PW TOTAL      4.3766 DISTAN   2.82E+00  6.45E+01 %
:CHARG:  CLM/ATOM    212.0505 DISTAN   4.77E-01  2.25E-01 %
INFO: Reducing dbase  2.50000E-02 1.69540E+00 1.92001E-02
 
Step History
        DMIX         DMIXT        Red     Pred      Trust     Lambda    MagRel    MagAbs     Beta
  1   3.5000E-02   3.5000E-02 -1.00E+00  1.00E+00 -1.00E+01  1.00E+00  3.50E-02  3.50E-02  1.00E+00
:INFO :  Note, Pratt in use
INFO: Reducing dbase  1.92001E-02 1.69540E+00 1.47458E-02
:TRUST:  Step 2.51E-02  Charge 7.50E-02 (e) CTO  2.50E-01 (e) PW  3.50E-01 (e)
:DIRM :  MEMORY  0/ 8 SCALE   1.000
Performing Pseudo Compensation
Final Pseudo Compensation Rescaling     9.98760E-01
Final Pseudo Compensation Rescaling     9.97421E-01
:MIX  :   PRATT  REGULARIZATION:  1.00E-04 GREED: 0.01674                  
     
       CHARGES OF MIXED CHARGE DENSITY
:CTO   : INTERSTITIAL     UP =     2.443102 DN =     1.378647 TOT =     3.821749
:CPC   : PW Pseudocharge  UP =     7.982760 DN =     5.660565 TOT =    13.643324
:CTO001: CHARGE SPHERE  1 UP =    14.064155 DN =    11.190498 TOT =    25.254653
:CTO002: CHARGE SPHERE  2 UP =    11.521003 DN =    13.731547 TOT =    25.252550
:CTO003: CHARGE SPHERE  3 UP =    22.967295 DN =    20.868230 TOT =    43.835524

       SPIN MAGNETIC MOMENTS OF MIXED CHARGE DENSITY
:MMINT:  MAGNETIC MOMENT IN INTERSTITIAL  =    1.06445
:MMI001: MAGNETIC MOMENT IN SPHERE   1    =    2.87366
:MMI002: MAGNETIC MOMENT IN SPHERE   2    =   -2.21054
:MMI003: MAGNETIC MOMENT IN SPHERE   3    =    2.09907
:MMTOT:  SPIN MAGNETIC MOMENT IN CELL     =    5.92570

:NEC03: NUCLEAR AND ELECTRONIC CHARGE    142.00000   142.00000

PW CHANGE     H    K    L      Current       Change    Residue
:PUP001:      0    0    0  2.91167955E-02 -9.539E-03 -1.463E-02
:PUP002:     -1   -1   -1  7.40817820E-03 -6.809E-03 -1.021E-02
:PUP003:      0    0   -2 -1.96312780E-02  1.776E-02  2.928E-02
:PUP004:      0   -2   -2  1.75679538E-02 -6.247E-02 -8.223E-02
:PUP005:     -1   -1   -3 -1.44124996E-03 -1.021E-02 -8.739E-03
:PUP006:     -2   -2   -2  1.42761459E-03  1.236E-02  1.377E-02
:PUP007:      0    0   -4 -6.83703520E-03 -1.587E-02 -1.570E-02
:PUP008:     -1   -3   -3 -2.75702769E-03 -4.892E-03 -6.231E-03
:PUP009:      0   -2   -4  1.26565943E-02  1.746E-02  1.176E-02
:PUP010:     -2   -2   -4 -2.36548566E-02 -2.887E-02 -1.565E-02
:PUP011:     -3   -3   -3 -5.54432846E-04 -7.033E-04 -5.112E-04
:PUP012:     -1   -1   -5 -1.65460474E-03 -2.101E-03 -1.014E-03
  
:PDN001:      0    0    0  1.96587382E-02 -4.917E-03 -2.000E-03
:PDN002:     -1   -1   -1 -7.32416581E-03  6.893E-03  1.036E-02
:PDN003:      0    0   -2 -6.42356671E-03  3.891E-03  5.583E-03
:PDN004:      0   -2   -2  1.83495364E-02 -3.742E-02 -5.707E-02
:PDN005:     -1   -1   -3  1.52778685E-03  1.030E-02  8.811E-03
:PDN006:     -2   -2   -2 -3.67119725E-05  2.383E-03  4.216E-03
:PDN007:      0    0   -4 -5.10750222E-03 -1.044E-02 -1.155E-02
:PDN008:     -1   -3   -3  2.77836376E-03  4.913E-03  6.218E-03
:PDN009:      0   -2   -4  6.51544540E-03  2.145E-03  2.558E-04
:PDN010:     -2   -2   -4 -2.07694292E-02 -2.004E-02 -8.340E-03
:PDN011:     -3   -3   -3  5.56528952E-04  7.053E-04  5.928E-04
:PDN012:     -1   -1   -5  1.65410462E-03  2.101E-03  8.533E-04

:ENE  : *WARNING** TOTAL ENERGY IN Ry =       -24232.22117292

 Flat Integration
 New Mode for Coulomb Integral
 Consistent 3/8+Simpson combinations
 Extension of core to zero
 LDM version in phi
 Fifth-order quadrature in outwin


            ---------
:ITE002:  2. ITERATION
            ---------

:NATO :    3 INDEPENDENT AND    4 TOTAL ATOMS IN UNITCELL
       SUBSTANCE: FeRh                                                        

       LATTICE                      = F   
:POT  : POTENTIAL OPTION EX_PBE EC_PBE VX_PBE VC_PBE
:LAT  : LATTICE CONSTANTS= 11.27222 11.27222 11.27222    1.571    1.571    1.571
:VOL  : UNIT CELL VOLUME =     358.07036
       MODE OF CALCULATION IS       = RELA
       SPINPOLARIZED CALCULATION
:IFFT  : FFT-parameters:   90   90   90 Factor: 2.00


   CONVERGENCE PARAMETER FOR PSEUDOCHARGE: NCON=  9
   MAXIMAL VALUE OF RMT(JATOM)*ABSK(NKK) : RK  =29.05063


:VKCOUL :  VK-COUL convergence: 0.491E-07
       ATOMNUMBER=  1 Fe1        VCOUL-ZERO =  0.62960E+00
       ATOMNUMBER=  2 Fe2        VCOUL-ZERO =  0.62918E+00
       ATOMNUMBER=  3 Rh1        VCOUL-ZERO =  0.60061E+00
:FIT001: LUSE= 13 SIGMA OF V-XC FIT FOR ATOM  1  0.6685386E-02
:FIT001: LUSE= 13 SIGMA OF V-XC FIT FOR ATOM  1  0.1325025E-02
:FIT002: LUSE= 13 SIGMA OF V-XC FIT FOR ATOM  2  0.9225445E-02
:FIT002: LUSE= 13 SIGMA OF V-XC FIT FOR ATOM  2  0.6441962E-02
:FIT003: LUSE= 13 SIGMA OF V-XC FIT FOR ATOM  3  0.1193877E-02
:FIT003: LUSE= 13 SIGMA OF V-XC FIT FOR ATOM  3  0.5134782E-02
:DEN  : DENSITY INTEGRAL  =         -9883.95934475   (Ry)
       ELS_POTENTIAL_AT Z=0 and Z=0.5:  -0.21525  -0.21525
       ELS_POTENTIAL_AT Y=0 and Y=0.5:   0.00000   0.00000
:VZERO:v0,v0c,v0x  -0.82994  -0.21525  -0.61469 v5,v5c,v5x  -0.82994  -0.21525  -0.61469
:VZERY:v0,v0c,v0x  -0.84756   0.00000  -0.84756 v5,v5c,v5x  -0.84756   0.00000  -0.84756
:VZERX:v0,v0c,v0x  -0.84756   0.00000  -0.84756 v5,v5c,v5x  -0.84756   0.00000  -0.84756
:LMAX-WF:   10   Non-Spherical LMAX:   4

          ATOMIC SPHERE DEPENDENT PARAMETERS FOR ATOM  Fe1       
:e__0001: OVERALL ENERGY PARAMETER IS    0.5000
          OVERALL BASIS SET ON ATOM IS LAPW
:E1_0001: E( 1)=    0.5000
             APW+lo
:E1_0001: E( 1)=   -3.2026   E(BOTTOM)=   -3.235   E(TOP)=   -3.170  1  2   176
             LOCAL ORBITAL
:E2_0001: E( 2)=    0.5795   E(BOTTOM)=    0.337   E(TOP)=    0.822  0  1   131
             APW+lo
:E0_0001: E( 0)=    0.5000
             APW+lo

          ATOMIC SPHERE DEPENDENT PARAMETERS FOR ATOM  Fe2       
:e__0002: OVERALL ENERGY PARAMETER IS    0.5000
          OVERALL BASIS SET ON ATOM IS LAPW
:E1_0002: E( 1)=    0.5000
             APW+lo
:E1_0002: E( 1)=   -3.0208   E(BOTTOM)=   -3.055   E(TOP)=   -2.986  1  2   175
             LOCAL ORBITAL
:E2_0002: E( 2)=    0.5000   E(BOTTOM)=    0.488   E(TOP)= -200.000  0 -1    77
             APW+lo
:E0_0002: E( 0)=    0.5000
             APW+lo

          ATOMIC SPHERE DEPENDENT PARAMETERS FOR ATOM  Rh1       
:e__0003: OVERALL ENERGY PARAMETER IS    0.5000
          OVERALL BASIS SET ON ATOM IS LAPW
:E1_0003: E( 1)=    0.5000
             APW+lo
:E1_0003: E( 1)=   -2.6620   E(BOTTOM)=   -2.762   E(TOP)=   -2.562  2  3   166
             LOCAL ORBITAL
:E2_0003: E( 2)=    0.5000   E(BOTTOM)=    0.131   E(TOP)= -200.000  1 -1    95
             APW+lo
:E0_0003: E( 0)=    0.5000
             APW+lo

       K=   0.00000   0.00000   0.00000            1
:RKM  : MATRIX SIZE   185LOs:  48  RKM= 6.64  WEIGHT= 1.00  PGR:    
       EIGENVALUES ARE:
:EIG00001:      -3.1956724   -3.1956724   -3.1956724   -3.0137347   -3.0137347
:EIG00006:      -3.0137347   -2.6449492   -2.6449492   -2.6449492   -2.6368126
:EIG00011:      -2.6368126   -2.6368126    0.0628496    0.3273316    0.3273316
:EIG00016:       0.3916229    0.3916229    0.3916229    0.5236127    0.5236127
:EIG00021:       0.5236127    0.6056265    0.6056265    0.6056265    0.6847195
:EIG00026:       0.6847195    0.7430297    0.7430297    0.8357191    0.8357191
:EIG00031:       0.8370207    0.8370207    0.8370207    1.2736687    1.3231078
:EIG00036:       1.3231078    1.3231078    1.3377497    1.3377497    1.3377497
:EIG00041:       1.4438723    1.4438723    1.4438723    1.4754468    2.0168130
:EIG00046:       2.0168130    2.0773616    2.1375720    2.1375720    2.1375720
 
       ********************************************************

:KPT   :      NUMBER OF K-POINTS:    47
:LMAX-WF:   10   Non-Spherical LMAX:   4

          ATOMIC SPHERE DEPENDENT PARAMETERS FOR ATOM  Fe1       
:e__0001: OVERALL ENERGY PARAMETER IS    0.5000
          OVERALL BASIS SET ON ATOM IS LAPW
:E1_0001: E( 1)=    0.5000
             APW+lo
:E1_0001: E( 1)=   -3.0137   E(BOTTOM)=   -3.048   E(TOP)=   -2.980  1  2   191
             LOCAL ORBITAL
:E2_0001: E( 2)=    0.5068   E(BOTTOM)=    0.507   E(TOP)= -200.000  0 -1    77
             APW+lo
:E0_0001: E( 0)=    0.5000
             APW+lo

          ATOMIC SPHERE DEPENDENT PARAMETERS FOR ATOM  Fe2       
:e__0002: OVERALL ENERGY PARAMETER IS    0.5000
          OVERALL BASIS SET ON ATOM IS LAPW
:E1_0002: E( 1)=    0.5000
             APW+lo
:E1_0002: E( 1)=   -3.2013   E(BOTTOM)=   -3.234   E(TOP)=   -3.169  1  2   156
             LOCAL ORBITAL
:E2_0002: E( 2)=    0.5851   E(BOTTOM)=    0.346   E(TOP)=    0.825  0  1   119
             APW+lo
:E0_0002: E( 0)=    0.5000
             APW+lo

          ATOMIC SPHERE DEPENDENT PARAMETERS FOR ATOM  Rh1       
:e__0003: OVERALL ENERGY PARAMETER IS    0.5000
          OVERALL BASIS SET ON ATOM IS LAPW
:E1_0003: E( 1)=    0.5000
             APW+lo
:E1_0003: E( 1)=   -2.5636   E(BOTTOM)=   -2.662   E(TOP)=   -2.465  2  3   172
             LOCAL ORBITAL
:E2_0003: E( 2)=    0.5000   E(BOTTOM)=    0.244   E(TOP)= -200.000  1 -1    90
             APW+lo
:E0_0003: E( 0)=    0.5000
             APW+lo

       K=   0.00000   0.00000   0.00000            1
:RKM  : MATRIX SIZE   185LOs:  48  RKM= 6.64  WEIGHT= 1.00  PGR:    
       EIGENVALUES ARE:
:EIG00001:      -3.1943080   -3.1943080   -3.1943080   -3.0065657   -3.0065657
:EIG00006:      -3.0065657   -2.5466142   -2.5466142   -2.5466142   -2.5388043
:EIG00011:      -2.5388043   -2.5388043    0.1573054    0.4143621    0.4143621
:EIG00016:       0.4951540    0.4951540    0.4951540    0.5595691    0.5595691
:EIG00021:       0.5595691    0.6797627    0.6797627    0.6797627    0.7162683
:EIG00026:       0.7162683    0.8518275    0.8518275    0.8575977    0.8575977
:EIG00031:       0.8864240    0.8864240    0.8864240    1.3246170    1.4111719
:EIG00036:       1.4111719    1.4111719    1.4263461    1.4263461    1.4263461
:EIG00041:       1.5271144    1.5271144    1.5271144    1.5891507    2.1074733
:EIG00046:       2.1074733    2.1523637
 
       ********************************************************

:KPT   :      NUMBER OF K-POINTS:    47
:GAP (global)   :    0.0    Ry =     0.0   eV (metal)
:GAP (this spin):    0.0    Ry =     0.0   eV (metal)
         Bandranges (emin - emax) and occupancy:
:BAN00021:  21    0.467110    0.554768  1.00000000
:BAN00022:  22    0.508341    0.613358  1.00000000
:BAN00023:  23    0.510052    0.658187  1.00000000
:BAN00024:  24    0.514160    0.662240  1.00000000
:BAN00025:  25    0.626841    0.684719  1.00000000
:BAN00026:  26    0.662852    0.697036  1.00000000
:BAN00027:  27    0.671319    0.743030  1.00000000
:BAN00028:  28    0.695520    0.743030  1.00000000
:BAN00029:  29    0.702883    0.835719  0.98349228
:BAN00030:  30    0.733370    0.835719  0.80491670
:BAN00031:  31    0.786088    0.837021  0.00298951
:BAN00032:  32    0.802634    0.837021  0.00000000
:BAN00033:  33    0.818139    0.870157  0.00000000
:BAN00034:  34    0.850987    1.273669  0.00000000
:BAN00035:  35    0.854001    1.323108  0.00000000
:BAN00036:  36    0.863747    1.323108  0.00000000
        Energy to separate low and high energystates:    0.01285


:NOE  : NUMBER OF ELECTRONS          =   58.000

:FER  : F E R M I - ENERGY(TETRAH.M.)=   0.7924421000
:GMA  : POTENTIAL AND CHARGE CUT-OFF  12.00 Ry**.5

:POS001: ATOM    1 X,Y,Z = 0.00000 0.00000 0.00000  MULT= 1  ZZ= 26.000  Fe1       

       LMMAX  5
       LM=   0 0  4 0  4 4  6 0  6 4

:CHA001: TOTAL VALENCE CHARGE INSIDE SPHERE   1 =   7.9115    (RMT=  2.4300 )
:PCS001: PARTIAL CHARGES SPHERE =  1 S,P,D,F,      D-EG,D-T2G 
:QTL001: 0.2533 3.2992 4.3191 0.0290 0.0000 0.0000 0.0000 1.7676 2.5515 0.0000 0.0000 0.0000
        Q-s-low E-s-low   Q-p-low E-p-low   Q-d-low E-d-low   Q-f-low E-f-low
:EPL001:  0.0006 -2.6497    2.9951 -3.1954    0.0014 -2.6451    0.0006 -2.6453
        Q-s-hi  E-s-hi    Q-p-hi  E-p-hi    Q-d-hi  E-d-hi    Q-f-hi  E-f-hi 
:EPH001:  0.2528  0.3053    0.3041  0.4785    4.3178  0.5964    0.0284  0.5493

:POS002: ATOM    2 X,Y,Z = 0.50000 0.00000 0.00000  MULT= 1  ZZ= 26.000  Fe2       

       LMMAX  5
       LM=   0 0  4 0  4 4  6 0  6 4

:CHA002: TOTAL VALENCE CHARGE INSIDE SPHERE   2 =   5.1392    (RMT=  2.4300 )
:PCS002: PARTIAL CHARGES SPHERE =  2 S,P,D,F,      D-EG,D-T2G 
:QTL002: 0.2257 3.2630 1.6111 0.0289 0.0000 0.0000 0.0000 0.4165 1.1946 0.0000 0.0000 0.0000
        Q-s-low E-s-low   Q-p-low E-p-low   Q-d-low E-d-low   Q-f-low E-f-low
:EPL002:  0.0005 -2.6503    2.9945 -3.0134    0.0013 -2.6459    0.0006 -2.6464
        Q-s-hi  E-s-hi    Q-p-hi  E-p-hi    Q-d-hi  E-d-hi    Q-f-hi  E-f-hi 
:EPH002:  0.2251  0.3329    0.2685  0.4840    1.6098  0.6261    0.0284  0.5531

:POS003: ATOM    3 X,Y,Z = 0.25000 0.25000 0.25000  MULT= 2  ZZ= 45.000  Rh1       

       LMMAX  6
       LM=   0 0  4 0  4 4  6 0  6 4 -3 2

:CHA003: TOTAL VALENCE CHARGE INSIDE SPHERE   3 =   7.0788    (RMT=  2.4300 )
:PCS003: PARTIAL CHARGES SPHERE =  3 S,P,D,F,      D-EG,D-T2G 
:QTL003: 0.1981 3.1956 3.6553 0.0238 0.0000 0.0000 0.0000 1.4755 2.1798 0.0000 0.0000 0.0000
        Q-s-low E-s-low   Q-p-low E-p-low   Q-d-low E-d-low   Q-f-low E-f-low
:EPL003:  0.0002 -3.0310    2.9786 -2.6415    0.0004 -3.0403    0.0002 -3.0385
        Q-s-hi  E-s-hi    Q-p-hi  E-p-hi    Q-d-hi  E-d-hi    Q-f-hi  E-f-hi 
:EPH003:  0.1980  0.3421    0.2170  0.5147    3.6549  0.5354    0.0236  0.5931

:CHA  : TOTAL VALENCE CHARGE INSIDE UNIT CELL =      29.791398

:SUM  : SUM OF EIGENVALUES =         -24.969844493



   QTL-B VALUE .EQ.    4.47230   in Band of energy    0.82070   ATOM=    2   L=  2
    Most likely no ghostbands, but adjust Energy-parameters for this ATOM and L


:WARN : QTL-B value eq.   4.47 in Band of energy   0.82070  ATOM=    2  L=  2
:WARN : You should change the E-parameter for this atom and L-value in case.in1 (or try the -in1new switch)
:GAP (global)   :    0.0    Ry =     0.0   eV (metal)
:GAP (this spin):    0.0    Ry =     0.0   eV (metal)
         Bandranges (emin - emax) and occupancy:
:BAN00019:  19    0.513052    0.573608  1.00000000
:BAN00020:  20    0.540828    0.625018  1.00000000
:BAN00021:  21    0.543419    0.660662  1.00000000
:BAN00022:  22    0.595920    0.679763  1.00000000
:BAN00023:  23    0.603172    0.697939  1.00000000
:BAN00024:  24    0.603172    0.714999  1.00000000
:BAN00025:  25    0.692233    0.730076  1.00000000
:BAN00026:  26    0.713963    0.738253  1.00000000
:BAN00027:  27    0.726369    0.851827  0.94397699
:BAN00028:  28    0.748124    0.851827  0.86105725
:BAN00029:  29    0.769262    0.857598  0.40355826
:BAN00030:  30    0.815894    0.857598  0.00000000
:BAN00031:  31    0.829236    0.886424  0.00000000
:BAN00032:  32    0.842288    0.886424  0.00000000
:BAN00033:  33    0.863380    0.913402  0.00000000
:BAN00034:  34    0.897508    1.328785  0.00000000
        Energy to separate low and high energystates:    0.10731


:NOE  : NUMBER OF ELECTRONS          =   58.000

:FER  : F E R M I - ENERGY(TETRAH.M.)=   0.7924421000
:GMA  : POTENTIAL AND CHARGE CUT-OFF  12.00 Ry**.5

:POS001: ATOM    1 X,Y,Z = 0.00000 0.00000 0.00000  MULT= 1  ZZ= 26.000  Fe1       

       LMMAX  5
       LM=   0 0  4 0  4 4  6 0  6 4

:CHA001: TOTAL VALENCE CHARGE INSIDE SPHERE   1 =   5.2001    (RMT=  2.4300 )
:PCS001: PARTIAL CHARGES SPHERE =  1 S,P,D,F,      D-EG,D-T2G 
:QTL001: 0.2365 3.2529 1.6779 0.0246 0.0000 0.0000 0.0000 0.3727 1.3052 0.0000 0.0000 0.0000
        Q-s-low E-s-low   Q-p-low E-p-low   Q-d-low E-d-low   Q-f-low E-f-low
:EPL001:  0.0005 -2.5522    2.9948 -3.0063    0.0013 -2.5482    0.0006 -2.5488
        Q-s-hi  E-s-hi    Q-p-hi  E-p-hi    Q-d-hi  E-d-hi    Q-f-hi  E-f-hi 
:EPH001:  0.2359  0.4283    0.2581  0.5694    1.6767  0.6463    0.0240  0.6301

:POS002: ATOM    2 X,Y,Z = 0.50000 0.00000 0.00000  MULT= 1  ZZ= 26.000  Fe2       

       LMMAX  5
       LM=   0 0  4 0  4 4  6 0  6 4

:CHA002: TOTAL VALENCE CHARGE INSIDE SPHERE   2 =   7.8908    (RMT=  2.4300 )
:PCS002: PARTIAL CHARGES SPHERE =  2 S,P,D,F,      D-EG,D-T2G 
:QTL002: 0.2660 3.2979 4.2917 0.0265 0.0000 0.0000 0.0000 1.8121 2.4796 0.0000 0.0000 0.0000
        Q-s-low E-s-low   Q-p-low E-p-low   Q-d-low E-d-low   Q-f-low E-f-low
:EPL002:  0.0006 -2.5518    2.9953 -3.1940    0.0014 -2.5474    0.0006 -2.5479
        Q-s-hi  E-s-hi    Q-p-hi  E-p-hi    Q-d-hi  E-d-hi    Q-f-hi  E-f-hi 
:EPH002:  0.2654  0.3834    0.3026  0.5588    4.2903  0.6046    0.0259  0.6376

:POS003: ATOM    3 X,Y,Z = 0.25000 0.25000 0.25000  MULT= 2  ZZ= 45.000  Rh1       

       LMMAX  6
       LM=   0 0  4 0  4 4  6 0  6 4 -3 2

:CHA003: TOTAL VALENCE CHARGE INSIDE SPHERE   3 =   6.3589    (RMT=  2.4300 )
:PCS003: PARTIAL CHARGES SPHERE =  3 S,P,D,F,      D-EG,D-T2G 
:QTL003: 0.1793 3.1673 2.9868 0.0200 0.0000 0.0000 0.0000 1.0929 1.8939 0.0000 0.0000 0.0000
        Q-s-low E-s-low   Q-p-low E-p-low   Q-d-low E-d-low   Q-f-low E-f-low
:EPL003:  0.0002 -3.0092    2.9791 -2.5433    0.0004 -3.0226    0.0002 -3.0205
        Q-s-hi  E-s-hi    Q-p-hi  E-p-hi    Q-d-hi  E-d-hi    Q-f-hi  E-f-hi 
:EPH003:  0.1792  0.4142    0.1883  0.5752    2.9864  0.6064    0.0198  0.6273

:CHA  : TOTAL VALENCE CHARGE INSIDE UNIT CELL =      28.208593

:SUM  : SUM OF EIGENVALUES =         -24.366583745



   QTL-B VALUE .EQ.    2.63806   in Band of energy    0.82060   ATOM=    1   L=  2
    Most likely no ghostbands, but adjust Energy-parameters for this ATOM and L


:WARN : QTL-B value eq.   2.64 in Band of energy   0.82060  ATOM=    1  L=  2
:WARN : You should change the E-parameter for this atom and L-value in case.in1 (or try the -in1new switch)

        1.ATOM      Fe1                   5 CORE STATES
:1S 001: 1S                -512.962039902 Ry
:2S 001: 2S                 -58.910398784 Ry
:2PP001: 2P*                -50.603593738 Ry
:2P 001: 2P                 -49.686967871 Ry
:3S 001: 3S                  -5.683831296 Ry

        2.ATOM      Fe2                   5 CORE STATES
:1S 002: 1S                -512.964848735 Ry
:2S 002: 2S                 -58.832231896 Ry
:2PP002: 2P*                -50.546254286 Ry
:2P 002: 2P                 -49.627854384 Ry
:3S 002: 3S                  -5.498183429 Ry

        3.ATOM      Rh1                  10 CORE STATES
:1S 003: 1S               -1691.262203443 Ry
:2S 003: 2S                -244.163778788 Ry
:2PP003: 2P*               -225.970784947 Ry
:2P 003: 2P                -215.342067639 Ry
:3S 003: 3S                 -42.699478589 Ry
:3PP003: 3P*                -35.582187902 Ry
:3P 003: 3P                 -33.753599619 Ry
:3DD003: 3D*                -21.158471305 Ry
:3D 003: 3D                 -20.797896817 Ry
:4S 003: 4S                  -4.986876661 Ry

        1.ATOM      Fe1                   5 CORE STATES
:1S 001: 1S                -512.961252892 Ry
:2S 001: 2S                 -58.828377810 Ry
:2PP001: 2P*                -50.542449755 Ry
:2P 001: 2P                 -49.624045335 Ry
:3S 001: 3S                  -5.491899855 Ry

        2.ATOM      Fe2                   5 CORE STATES
:1S 002: 1S                -512.965560193 Ry
:2S 002: 2S                 -58.913477170 Ry
:2PP002: 2P*                -50.606770147 Ry
:2P 002: 2P                 -49.690134974 Ry
:3S 002: 3S                  -5.683338426 Ry

        3.ATOM      Rh1                  10 CORE STATES
:1S 003: 1S               -1691.261082314 Ry
:2S 003: 2S                -244.143186885 Ry
:2PP003: 2P*               -225.955800596 Ry
:2P 003: 2P                -215.326040260 Ry
:3S 003: 3S                 -42.688017605 Ry
:3PP003: 3P*                -35.568933034 Ry
:3P 003: 3P                 -33.740776841 Ry
:3DD003: 3D*                -21.138951973 Ry
:3D 003: 3D                 -20.778439764 Ry
:4S 003: 4S                  -4.894827688 Ry
:CINT001 Core Integral Atom   1 Up    5.999610 Dn   5.999592 Total  11.999202
:CINT002 Core Integral Atom   2 Up    5.999580 Dn   5.999619 Total  11.999199
:CINT003 Core Integral Atom   3 Up   14.998605 Dn  14.998644 Total  29.997248

       DENSITY AT NUCLEUS
        JATOM        VALENCE       SEMI-CORE          CORE           TOTAL
:RTO001:   1        7.271282        0.000000    15301.673657    15308.944939
:RTO002:   2        7.298949        0.000000    15301.684306    15308.983255
:RTO003:   3       24.712612        0.000000   155310.548061   155335.260673

       HYPERFINE FIELDS FOR THOMSON RADIUS
:HFF001:          116.357           0.000        -301.016        -184.659 (KGAUSS)
:HFF002:         -345.805           0.000         248.320         -97.485 (KGAUSS)
:HFF003:          335.958           0.000        -441.652        -105.694 (KGAUSS)
     
       CHARGES OF NEW CHARGE DENSITY
:NTO   : INTERSTITIAL     UP =     2.583167 DN =     2.399862 TOT =     4.983029
:NPC   : PW Pseudocharge  UP =     5.970960 DN =     5.607915 TOT =    11.578875
:NTO001: CHARGE SPHERE  1 UP =    13.911063 DN =    11.199723 TOT =    25.110786
:NTO002: CHARGE SPHERE  2 UP =    11.138823 DN =    13.890373 TOT =    25.029196
:NTO003: CHARGE SPHERE  3 UP =    22.077356 DN =    21.357551 TOT =    43.434907

:NEC01: NUCLEAR AND ELECTRONIC CHARGE    142.00000   141.99283
     
       CHARGES OF OLD CHARGE DENSITY
:OTO   : INTERSTITIAL     UP =     2.443102 DN =     1.378647 TOT =     3.821749
:OPC   : PW Pseudocharge  UP =     7.982760 DN =     5.660565 TOT =    13.643324
:OTO001: CHARGE SPHERE  1 UP =    14.064155 DN =    11.190498 TOT =    25.254653
:OTO002: CHARGE SPHERE  2 UP =    11.521003 DN =    13.731547 TOT =    25.252550
:OTO003: CHARGE SPHERE  3 UP =    22.967295 DN =    20.868230 TOT =    43.835524

:NEC02: NUCLEAR AND ELECTRONIC CHARGE    142.00000   142.00000
     
       CONVERGENCE TEST
:DTO001: DIFFERENCE SPHERE  1 UP =  0.1678266 DN =  0.4850948 TOT =  0.6529213
:DTO002: DIFFERENCE SPHERE  2 UP =  0.5651277 DN =  0.1789235 TOT =  0.7440512
:DTO003: DIFFERENCE SPHERE  3 UP =  0.6782552 DN =  0.2332917 TOT =  0.9115470

:DIS  :  CHARGE DISTANCE       ( 0.6782552 for atom    3 spin 1)      1.6100332
 PW Mixed is           49
 
******************************************************
* MULTISECANT MIXING VER9 RELEASE 10.4.0              *
* Slow Mode, cautious                                *
* Fixed density scale                                *
* Regularization       1.000E-04                     *
* Step Trust Radius    0.75000                       *
* Trust Upper Limit    2.000E+00                     *
* Max Number of Memory Steps   12                    *
******************************************************
 
:PWTMP   1.1765E+02  4.5917E+02  3.5807E+02
:PLANE:  PW TOTAL      2.9238 DISTAN   9.30E-01  3.18E+01 %
:CHARG:  CLM/ATOM    212.0496 DISTAN   4.56E-01  2.15E-01 %
INFO: Reducing dbase  1.00000E-02 1.61003E+00 7.88102E-03
 
Step History
        DMIX         DMIXT        Red     Pred      Trust     Lambda    MagRel    MagAbs     Beta
  1   3.5000E-02   3.5000E-02 -1.00E+00  1.00E+00 -1.00E+01  1.00E+00  3.50E-02  3.50E-02  1.00E+00
  2   1.6736E-02   1.6736E-02 -1.00E+00  1.00E+00 -1.00E+01  1.00E+00  1.67E-02  3.36E-02  1.00E+00
:JACOBIANS    4.959E-01   5.616E-04
  
:TRUST:  Step 2.28E-02  Charge 7.50E-02 (e) CTO  2.50E-01 (e) PW  3.50E-01 (e)
:DIRM :  MEMORY  1/12 SCALE   1.000
:MIX  :   PRATT  REGULARIZATION:  1.00E-04 GREED: 0.02283  Expand 1.36  0.0228                
     
       CHARGES OF MIXED CHARGE DENSITY
:CTO   : INTERSTITIAL     UP =     2.443998 DN =     1.384709 TOT =     3.828707
:CPC   : PW Pseudocharge  UP =     6.833058 DN =     5.062369 TOT =    11.895427
:CTO001: CHARGE SPHERE  1 UP =    14.063274 DN =    11.190624 TOT =    25.253898
:CTO002: CHARGE SPHERE  2 UP =    11.518701 DN =    13.732387 TOT =    25.251088
:CTO003: CHARGE SPHERE  3 UP =    22.962189 DN =    20.870964 TOT =    43.833153

       SPIN MAGNETIC MOMENTS OF MIXED CHARGE DENSITY
:MMINT:  MAGNETIC MOMENT IN INTERSTITIAL  =    1.05929
:MMI001: MAGNETIC MOMENT IN SPHERE   1    =    2.87265
:MMI002: MAGNETIC MOMENT IN SPHERE   2    =   -2.21369
:MMI003: MAGNETIC MOMENT IN SPHERE   3    =    2.09122
:MMTOT:  SPIN MAGNETIC MOMENT IN CELL     =    5.90070

:NEC03: NUCLEAR AND ELECTRONIC CHARGE    142.00000   142.00000

PW CHANGE     H    K    L      Current       Change    Residue
:PUP001:      0    0    0  2.59084741E-02 -3.208E-03 -5.193E-03
:PUP002:     -1   -1   -1  5.11799604E-03 -2.290E-03 -3.453E-03
:PUP003:      0    0   -2 -1.36586847E-02  5.973E-03  1.155E-02
:PUP004:      0   -2   -2 -3.44366879E-03 -2.101E-02 -1.973E-02
:PUP005:     -1   -1   -3 -4.87655446E-03 -3.435E-03  1.446E-03
:PUP006:     -2   -2   -2  5.58615605E-03  4.159E-03  1.365E-03
:PUP007:      0    0   -4 -1.21752199E-02 -5.338E-03  1.790E-04
:PUP008:     -1   -3   -3 -4.40226623E-03 -1.645E-03 -1.313E-03
:PUP009:      0   -2   -4  1.85304383E-02  5.874E-03 -5.743E-03
:PUP010:     -2   -2   -4 -3.33634237E-02 -9.709E-03  1.322E-02
:PUP011:     -3   -3   -3 -7.90962648E-04 -2.365E-04  1.989E-04
:PUP012:     -1   -1   -5 -2.36127009E-03 -7.067E-04  1.101E-03
  
:PDN001:      0    0    0  1.80050569E-02 -1.654E-03  2.737E-03
:PDN002:     -1   -1   -1 -5.00592195E-03  2.318E-03  3.448E-03
:PDN003:      0    0   -2 -5.11495089E-03  1.309E-03  1.675E-03
:PDN004:      0   -2   -2  5.76341077E-03 -1.259E-02 -1.917E-02
:PDN005:     -1   -1   -3  4.99207674E-03  3.464E-03 -1.318E-03
:PDN006:     -2   -2   -2  7.64870261E-04  8.016E-04  1.866E-03
:PDN007:      0    0   -4 -8.61734829E-03 -3.510E-03 -1.028E-03
:PDN008:     -1   -3   -3  4.43074917E-03  1.652E-03  1.337E-03
:PDN009:      0   -2   -4  7.23676162E-03  7.213E-04 -1.835E-03
:PDN010:     -2   -2   -4 -2.75100509E-02 -6.741E-03  1.167E-02
:PDN011:     -3   -3   -3  7.93761715E-04  2.372E-04 -1.265E-04
:PDN012:     -1   -1   -5  2.36059564E-03  7.065E-04 -1.237E-03

:ENE  : *WARNING** TOTAL ENERGY IN Ry =       -24232.20025337

 Flat Integration
 New Mode for Coulomb Integral
 Consistent 3/8+Simpson combinations
 Extension of core to zero
 LDM version in phi
 Fifth-order quadrature in outwin


            ---------
:ITE003:  3. ITERATION
            ---------

:NATO :    3 INDEPENDENT AND    4 TOTAL ATOMS IN UNITCELL
       SUBSTANCE: FeRh                                                        

       LATTICE                      = F   
:POT  : POTENTIAL OPTION EX_PBE EC_PBE VX_PBE VC_PBE
:LAT  : LATTICE CONSTANTS= 11.27222 11.27222 11.27222    1.571    1.571    1.571
:VOL  : UNIT CELL VOLUME =     358.07036
       MODE OF CALCULATION IS       = RELA
       SPINPOLARIZED CALCULATION
:IFFT  : FFT-parameters:   90   90   90 Factor: 2.00


   CONVERGENCE PARAMETER FOR PSEUDOCHARGE: NCON=  9
   MAXIMAL VALUE OF RMT(JATOM)*ABSK(NKK) : RK  =29.05063


:VKCOUL :  VK-COUL convergence: 0.551E-07
       ATOMNUMBER=  1 Fe1        VCOUL-ZERO =  0.62001E+00
       ATOMNUMBER=  2 Fe2        VCOUL-ZERO =  0.61944E+00
       ATOMNUMBER=  3 Rh1        VCOUL-ZERO =  0.59089E+00
:FIT001: LUSE= 13 SIGMA OF V-XC FIT FOR ATOM  1  0.6602216E-02
:FIT001: LUSE= 13 SIGMA OF V-XC FIT FOR ATOM  1  0.1411391E-02
:FIT002: LUSE= 13 SIGMA OF V-XC FIT FOR ATOM  2  0.9162283E-02
:FIT002: LUSE= 13 SIGMA OF V-XC FIT FOR ATOM  2  0.6341699E-02
:FIT003: LUSE= 13 SIGMA OF V-XC FIT FOR ATOM  3  0.1168479E-02
:FIT003: LUSE= 13 SIGMA OF V-XC FIT FOR ATOM  3  0.5054885E-02
:DEN  : DENSITY INTEGRAL  =         -9882.05985838   (Ry)
       ELS_POTENTIAL_AT Z=0 and Z=0.5:  -0.20774  -0.20774
       ELS_POTENTIAL_AT Y=0 and Y=0.5:   0.00000   0.00000
:VZERO:v0,v0c,v0x  -0.73428  -0.20774  -0.52654 v5,v5c,v5x  -0.73428  -0.20774  -0.52654
:VZERY:v0,v0c,v0x  -0.81140   0.00000  -0.81140 v5,v5c,v5x  -0.81140   0.00000  -0.81140
:VZERX:v0,v0c,v0x  -0.81140   0.00000  -0.81140 v5,v5c,v5x  -0.81140   0.00000  -0.81140
:LMAX-WF:   10   Non-Spherical LMAX:   4

          ATOMIC SPHERE DEPENDENT PARAMETERS FOR ATOM  Fe1       
:e__0001: OVERALL ENERGY PARAMETER IS    0.5616
          OVERALL BASIS SET ON ATOM IS LAPW
:E1_0001: E( 1)=    0.5616
             APW+lo
:E1_0001: E( 1)=   -3.2152   E(BOTTOM)=   -3.248   E(TOP)=   -3.182  1  2   171
             LOCAL ORBITAL
:E2_0001: E( 2)=    0.5676   E(BOTTOM)=    0.325   E(TOP)=    0.810  0  1   123
             APW+lo
:E0_0001: E( 0)=    0.5616
             APW+lo

          ATOMIC SPHERE DEPENDENT PARAMETERS FOR ATOM  Fe2       
:e__0002: OVERALL ENERGY PARAMETER IS    0.5616
          OVERALL BASIS SET ON ATOM IS LAPW
:E1_0002: E( 1)=    0.5616
             APW+lo
:E1_0002: E( 1)=   -3.0341   E(BOTTOM)=   -3.068   E(TOP)=   -3.000  1  2   169
             LOCAL ORBITAL
:E2_0002: E( 2)=    0.7339   E(BOTTOM)=    0.476   E(TOP)=    0.992  0  1   132
             APW+lo
:E0_0002: E( 0)=    0.5616
             APW+lo

          ATOMIC SPHERE DEPENDENT PARAMETERS FOR ATOM  Rh1       
:e__0003: OVERALL ENERGY PARAMETER IS    0.5616
          OVERALL BASIS SET ON ATOM IS LAPW
:E1_0003: E( 1)=    0.5616
             APW+lo
:E1_0003: E( 1)=   -2.6742   E(BOTTOM)=   -2.774   E(TOP)=   -2.574  2  3   165
             LOCAL ORBITAL
:E2_0003: E( 2)=    0.5767   E(BOTTOM)=    0.120   E(TOP)=    1.033  1  2   148
             APW+lo
:E0_0003: E( 0)=    0.5616
             APW+lo

       K=   0.00000   0.00000   0.00000            1
:RKM  : MATRIX SIZE   185LOs:  48  RKM= 6.64  WEIGHT= 1.00  PGR:    
       EIGENVALUES ARE:
:EIG00001:      -3.2082578   -3.2082578   -3.2082578   -3.0269554   -3.0269554
:EIG00006:      -3.0269554   -2.6569880   -2.6569880   -2.6569880   -2.6490433
:EIG00011:      -2.6490433   -2.6490433    0.0522642    0.3163665    0.3163665
:EIG00016:       0.3804857    0.3804857    0.3804857    0.5119226    0.5119226
:EIG00021:       0.5119226    0.5939343    0.5939343    0.5939343    0.6726032
:EIG00026:       0.6726032    0.7312591    0.7312591    0.8223147    0.8223147
:EIG00031:       0.8242412    0.8242412    0.8242412    1.2627305    1.3121591
:EIG00036:       1.3121591    1.3121591    1.3198560    1.3198560    1.3198560
:EIG00041:       1.4304507    1.4304507    1.4304507    1.4644701    1.9823932
:EIG00046:       1.9823932    2.0659122    2.1264651    2.1264651    2.1264651
 
       ********************************************************

:KPT   :      NUMBER OF K-POINTS:    47
:LMAX-WF:   10   Non-Spherical LMAX:   4

          ATOMIC SPHERE DEPENDENT PARAMETERS FOR ATOM  Fe1       
:e__0001: OVERALL ENERGY PARAMETER IS    0.5616
          OVERALL BASIS SET ON ATOM IS LAPW
:E1_0001: E( 1)=    0.5616
             APW+lo
:E1_0001: E( 1)=   -3.0262   E(BOTTOM)=   -3.060   E(TOP)=   -2.992  1  2   188
             LOCAL ORBITAL
:E2_0001: E( 2)=    0.7475   E(BOTTOM)=    0.495   E(TOP)=    1.000  0  1   121
             APW+lo
:E0_0001: E( 0)=    0.5616
             APW+lo

          ATOMIC SPHERE DEPENDENT PARAMETERS FOR ATOM  Fe2       
:e__0002: OVERALL ENERGY PARAMETER IS    0.5616
          OVERALL BASIS SET ON ATOM IS LAPW
:E1_0002: E( 1)=    0.5616
             APW+lo
:E1_0002: E( 1)=   -3.2147   E(BOTTOM)=   -3.247   E(TOP)=   -3.182  1  2   156
             LOCAL ORBITAL
:E2_0002: E( 2)=    0.5723   E(BOTTOM)=    0.333   E(TOP)=    0.811  0  1   125
             APW+lo
:E0_0002: E( 0)=    0.5616
             APW+lo

          ATOMIC SPHERE DEPENDENT PARAMETERS FOR ATOM  Rh1       
:e__0003: OVERALL ENERGY PARAMETER IS    0.5616
          OVERALL BASIS SET ON ATOM IS LAPW
:E1_0003: E( 1)=    0.5616
             APW+lo
:E1_0003: E( 1)=   -2.5761   E(BOTTOM)=   -2.675   E(TOP)=   -2.477  2  3   171
             LOCAL ORBITAL
:E2_0003: E( 2)=    0.5616   E(BOTTOM)=    0.232   E(TOP)= -200.000  1 -1    91
             APW+lo
:E0_0003: E( 0)=    0.5616
             APW+lo

       K=   0.00000   0.00000   0.00000            1
:RKM  : MATRIX SIZE   185LOs:  48  RKM= 6.64  WEIGHT= 1.00  PGR:    
       EIGENVALUES ARE:
:EIG00001:      -3.2077503   -3.2077503   -3.2077503   -3.0190150   -3.0190150
:EIG00006:      -3.0190150   -2.5589547   -2.5589547   -2.5589547   -2.5513425
:EIG00011:      -2.5513425   -2.5513425    0.1483615    0.4037149    0.4037149
:EIG00016:       0.4847179    0.4847179    0.4847179    0.5476109    0.5476109
:EIG00021:       0.5476109    0.6684757    0.6684757    0.6684757    0.7036515
:EIG00026:       0.7036515    0.8397276    0.8397276    0.8447189    0.8447189
:EIG00031:       0.8735840    0.8735840    0.8735840    1.3146793    1.4015970
:EIG00036:       1.4015970    1.4015970    1.4090815    1.4090815    1.4090815
:EIG00041:       1.5147174    1.5147174    1.5147174    1.5790483    2.0734237
:EIG00046:       2.0734237    2.1413200    2.2409244    2.2409244    2.2409244
 
       ********************************************************

:KPT   :      NUMBER OF K-POINTS:    47
:GAP (global)   :    0.0    Ry =     0.0   eV (metal)
:GAP (this spin):    0.0    Ry =     0.0   eV (metal)
         Bandranges (emin - emax) and occupancy:
:BAN00021:  21    0.455596    0.543306  1.00000000
:BAN00022:  22    0.496901    0.601650  1.00000000
:BAN00023:  23    0.498634    0.646589  1.00000000
:BAN00024:  24    0.502801    0.650201  1.00000000
:BAN00025:  25    0.614898    0.672603  1.00000000
:BAN00026:  26    0.650884    0.684920  1.00000000
:BAN00027:  27    0.659286    0.731259  1.00000000
:BAN00028:  28    0.683727    0.731259  1.00000000
:BAN00029:  29    0.692239    0.822315  0.98362542
:BAN00030:  30    0.721619    0.822315  0.81410378
:BAN00031:  31    0.773401    0.824241  0.00430120
:BAN00032:  32    0.789659    0.824241  0.00000000
:BAN00033:  33    0.806498    0.856780  0.00000000
:BAN00034:  34    0.837930    1.262731  0.00000000
:BAN00035:  35    0.840673    1.312159  0.00000000
:BAN00036:  36    0.850316    1.312159  0.00000000
        Energy to separate low and high energystates:    0.00226


:NOE  : NUMBER OF ELECTRONS          =   58.000

:FER  : F E R M I - ENERGY(TETRAH.M.)=   0.7801953783
:GMA  : POTENTIAL AND CHARGE CUT-OFF  12.00 Ry**.5

:POS001: ATOM    1 X,Y,Z = 0.00000 0.00000 0.00000  MULT= 1  ZZ= 26.000  Fe1       

       LMMAX  5
       LM=   0 0  4 0  4 4  6 0  6 4

:CHA001: TOTAL VALENCE CHARGE INSIDE SPHERE   1 =   7.9114    (RMT=  2.4300 )
:PCS001: PARTIAL CHARGES SPHERE =  1 S,P,D,F,      D-EG,D-T2G 
:QTL001: 0.2531 3.2986 4.3200 0.0290 0.0000 0.0000 0.0000 1.7683 2.5517 0.0000 0.0000 0.0000
        Q-s-low E-s-low   Q-p-low E-p-low   Q-d-low E-d-low   Q-f-low E-f-low
:EPL001:  0.0006 -2.6619    2.9951 -3.2080    0.0014 -2.6573    0.0006 -2.6575
        Q-s-hi  E-s-hi    Q-p-hi  E-p-hi    Q-d-hi  E-d-hi    Q-f-hi  E-f-hi 
:EPH001:  0.2526  0.2944    0.3035  0.4672    4.3186  0.5844    0.0284  0.5380

:POS002: ATOM    2 X,Y,Z = 0.50000 0.00000 0.00000  MULT= 1  ZZ= 26.000  Fe2       

       LMMAX  5
       LM=   0 0  4 0  4 4  6 0  6 4

:CHA002: TOTAL VALENCE CHARGE INSIDE SPHERE   2 =   5.1553    (RMT=  2.4300 )
:PCS002: PARTIAL CHARGES SPHERE =  2 S,P,D,F,      D-EG,D-T2G 
:QTL002: 0.2255 3.2623 1.6281 0.0289 0.0000 0.0000 0.0000 0.4243 1.2038 0.0000 0.0000 0.0000
        Q-s-low E-s-low   Q-p-low E-p-low   Q-d-low E-d-low   Q-f-low E-f-low
:EPL002:  0.0005 -2.6625    2.9945 -3.0267    0.0013 -2.6580    0.0006 -2.6586
        Q-s-hi  E-s-hi    Q-p-hi  E-p-hi    Q-d-hi  E-d-hi    Q-f-hi  E-f-hi 
:EPH002:  0.2249  0.3221    0.2678  0.4728    1.6268  0.6151    0.0283  0.5417

:POS003: ATOM    3 X,Y,Z = 0.25000 0.25000 0.25000  MULT= 2  ZZ= 45.000  Rh1       

       LMMAX  6
       LM=   0 0  4 0  4 4  6 0  6 4 -3 2

:CHA003: TOTAL VALENCE CHARGE INSIDE SPHERE   3 =   7.0788    (RMT=  2.4300 )
:PCS003: PARTIAL CHARGES SPHERE =  3 S,P,D,F,      D-EG,D-T2G 
:QTL003: 0.1979 3.1950 3.6562 0.0237 0.0000 0.0000 0.0000 1.4764 2.1798 0.0000 0.0000 0.0000
        Q-s-low E-s-low   Q-p-low E-p-low   Q-d-low E-d-low   Q-f-low E-f-low
:EPL003:  0.0002 -3.0435    2.9786 -2.6537    0.0004 -3.0533    0.0002 -3.0520
        Q-s-hi  E-s-hi    Q-p-hi  E-p-hi    Q-d-hi  E-d-hi    Q-f-hi  E-f-hi 
:EPH003:  0.1977  0.3310    0.2164  0.5033    3.6558  0.5240    0.0235  0.5814

:CHA  : TOTAL VALENCE CHARGE INSIDE UNIT CELL =      29.802030

:SUM  : SUM OF EIGENVALUES =         -25.316512676

:GAP (global)   :    0.0    Ry =     0.0   eV (metal)
:GAP (this spin):    0.0    Ry =     0.0   eV (metal)
         Bandranges (emin - emax) and occupancy:
:BAN00019:  19    0.501726    0.562000  1.00000000
:BAN00020:  20    0.530277    0.613619  1.00000000
:BAN00021:  21    0.532949    0.649409  1.00000000
:BAN00022:  22    0.584918    0.668476  1.00000000
:BAN00023:  23    0.592182    0.685774  1.00000000
:BAN00024:  24    0.592182    0.702870  1.00000000
:BAN00025:  25    0.680055    0.717806  1.00000000
:BAN00026:  26    0.702641    0.726427  1.00000000
:BAN00027:  27    0.714477    0.839728  0.94354642
:BAN00028:  28    0.736578    0.839728  0.85917142
:BAN00029:  29    0.757476    0.844719  0.39525177
:BAN00030:  30    0.803438    0.844719  0.00000000
:BAN00031:  31    0.816845    0.873584  0.00000000
:BAN00032:  32    0.830218    0.873584  0.00000000
:BAN00033:  33    0.850534    0.900015  0.00000000
:BAN00034:  34    0.884553    1.314679  0.00000000
        Energy to separate low and high energystates:    0.09836


:NOE  : NUMBER OF ELECTRONS          =   58.000

:FER  : F E R M I - ENERGY(TETRAH.M.)=   0.7801953783
:GMA  : POTENTIAL AND CHARGE CUT-OFF  12.00 Ry**.5

:POS001: ATOM    1 X,Y,Z = 0.00000 0.00000 0.00000  MULT= 1  ZZ= 26.000  Fe1       

       LMMAX  5
       LM=   0 0  4 0  4 4  6 0  6 4

:CHA001: TOTAL VALENCE CHARGE INSIDE SPHERE   1 =   5.2005    (RMT=  2.4300 )
:PCS001: PARTIAL CHARGES SPHERE =  1 S,P,D,F,      D-EG,D-T2G 
:QTL001: 0.2359 3.2508 1.6811 0.0244 0.0000 0.0000 0.0000 0.3744 1.3067 0.0000 0.0000 0.0000
        Q-s-low E-s-low   Q-p-low E-p-low   Q-d-low E-d-low   Q-f-low E-f-low
:EPL001:  0.0005 -2.5647    2.9948 -3.0187    0.0013 -2.5606    0.0006 -2.5613
        Q-s-hi  E-s-hi    Q-p-hi  E-p-hi    Q-d-hi  E-d-hi    Q-f-hi  E-f-hi 
:EPH001:  0.2354  0.4189    0.2560  0.5588    1.6798  0.6351    0.0238  0.6186

:POS002: ATOM    2 X,Y,Z = 0.50000 0.00000 0.00000  MULT= 1  ZZ= 26.000  Fe2       

       LMMAX  5
       LM=   0 0  4 0  4 4  6 0  6 4

:CHA002: TOTAL VALENCE CHARGE INSIDE SPHERE   2 =   7.8928    (RMT=  2.4300 )
:PCS002: PARTIAL CHARGES SPHERE =  2 S,P,D,F,      D-EG,D-T2G 
:QTL002: 0.2659 3.2964 4.2955 0.0263 0.0000 0.0000 0.0000 1.8138 2.4817 0.0000 0.0000 0.0000
        Q-s-low E-s-low   Q-p-low E-p-low   Q-d-low E-d-low   Q-f-low E-f-low
:EPL002:  0.0006 -2.5643    2.9953 -3.2074    0.0014 -2.5599    0.0006 -2.5603
        Q-s-hi  E-s-hi    Q-p-hi  E-p-hi    Q-d-hi  E-d-hi    Q-f-hi  E-f-hi 
:EPH002:  0.2653  0.3737    0.3011  0.5482    4.2941  0.5920    0.0257  0.6263

:POS003: ATOM    3 X,Y,Z = 0.25000 0.25000 0.25000  MULT= 2  ZZ= 45.000  Rh1       

       LMMAX  6
       LM=   0 0  4 0  4 4  6 0  6 4 -3 2

:CHA003: TOTAL VALENCE CHARGE INSIDE SPHERE   3 =   6.3585    (RMT=  2.4300 )
:PCS003: PARTIAL CHARGES SPHERE =  3 S,P,D,F,      D-EG,D-T2G 
:QTL003: 0.1790 3.1660 2.9883 0.0198 0.0000 0.0000 0.0000 1.0944 1.8939 0.0000 0.0000 0.0000
        Q-s-low E-s-low   Q-p-low E-p-low   Q-d-low E-d-low   Q-f-low E-f-low
:EPL003:  0.0001 -3.0218    2.9791 -2.5557    0.0004 -3.0357    0.0002 -3.0341
        Q-s-hi  E-s-hi    Q-p-hi  E-p-hi    Q-d-hi  E-d-hi    Q-f-hi  E-f-hi 
:EPH003:  0.1788  0.4045    0.1869  0.5645    2.9879  0.5952    0.0196  0.6155

:CHA  : TOTAL VALENCE CHARGE INSIDE UNIT CELL =      28.197970

:SUM  : SUM OF EIGENVALUES =         -24.707838702


        1.ATOM      Fe1                   5 CORE STATES
:1S 001: 1S                -512.976677391 Ry
:2S 001: 2S                 -58.924895806 Ry
:2PP001: 2P*                -50.618132795 Ry
:2P 001: 2P                 -49.701502574 Ry
:3S 001: 3S                  -5.696579694 Ry

        2.ATOM      Fe2                   5 CORE STATES
:1S 002: 1S                -512.980687213 Ry
:2S 002: 2S                 -58.847821926 Ry
:2PP002: 2P*                -50.561913424 Ry
:2P 002: 2P                 -49.643506711 Ry
:3S 002: 3S                  -5.511602139 Ry

        3.ATOM      Rh1                  10 CORE STATES
:1S 003: 1S               -1691.277019824 Ry
:2S 003: 2S                -244.178409154 Ry
:2PP003: 2P*               -225.985469725 Ry
:2P 003: 2P                -215.356740630 Ry
:3S 003: 3S                 -42.713435210 Ry
:3PP003: 3P*                -35.596160348 Ry
:3P 003: 3P                 -33.767547762 Ry
:3DD003: 3D*                -21.172483270 Ry
:3D 003: 3D                 -20.811900162 Ry
:4S 003: 4S                  -4.999351135 Ry

        1.ATOM      Fe1                   5 CORE STATES
:1S 001: 1S                -512.975896518 Ry
:2S 001: 2S                 -58.842817534 Ry
:2PP001: 2P*                -50.556947200 Ry
:2P 001: 2P                 -49.638537080 Ry
:3S 001: 3S                  -5.504519355 Ry

        2.ATOM      Fe2                   5 CORE STATES
:1S 002: 1S                -512.981395832 Ry
:2S 002: 2S                 -58.929147722 Ry
:2PP002: 2P*                -50.622489565 Ry
:2P 002: 2P                 -49.705849347 Ry
:3S 002: 3S                  -5.696973531 Ry

        3.ATOM      Rh1                  10 CORE STATES
:1S 003: 1S               -1691.275906050 Ry
:2S 003: 2S                -244.157887019 Ry
:2PP003: 2P*               -225.970537001 Ry
:2P 003: 2P                -215.340768245 Ry
:3S 003: 3S                 -42.702017286 Ry
:3PP003: 3P*                -35.582954412 Ry
:3P 003: 3P                 -33.754772658 Ry
:3DD003: 3D*                -21.153033020 Ry
:3D 003: 3D                 -20.792512051 Ry
:4S 003: 4S                  -4.907611464 Ry
:CINT001 Core Integral Atom   1 Up    5.999611 Dn   5.999593 Total  11.999203
:CINT002 Core Integral Atom   2 Up    5.999581 Dn   5.999620 Total  11.999201
:CINT003 Core Integral Atom   3 Up   14.998607 Dn  14.998646 Total  29.997253

       DENSITY AT NUCLEUS
        JATOM        VALENCE       SEMI-CORE          CORE           TOTAL
:RTO001:   1        7.250529        0.000000    15301.713879    15308.964408
:RTO002:   2        7.284890        0.000000    15301.732125    15309.017015
:RTO003:   3       24.640558        0.000000   155310.680976   155335.321534

       HYPERFINE FIELDS FOR THOMSON RADIUS
:HFF001:          116.091           0.000        -301.157        -185.065 (KGAUSS)
:HFF002:         -347.175           0.000         248.863         -98.312 (KGAUSS)
:HFF003:          334.675           0.000        -440.200        -105.525 (KGAUSS)
     
       CHARGES OF NEW CHARGE DENSITY
:NTO   : INTERSTITIAL     UP =     2.577760 DN =     2.387537 TOT =     4.965298
:NPC   : PW Pseudocharge  UP =     5.963123 DN =     5.596349 TOT =    11.559472
:NTO001: CHARGE SPHERE  1 UP =    13.911004 DN =    11.200123 TOT =    25.111127
:NTO002: CHARGE SPHERE  2 UP =    11.154899 DN =    13.892433 TOT =    25.047332
:NTO003: CHARGE SPHERE  3 UP =    22.077370 DN =    21.357175 TOT =    43.434545

:NEC01: NUCLEAR AND ELECTRONIC CHARGE    142.00000   141.99285
     
       CHARGES OF OLD CHARGE DENSITY
:OTO   : INTERSTITIAL     UP =     2.443998 DN =     1.384709 TOT =     3.828707
:OPC   : PW Pseudocharge  UP =     6.833058 DN =     5.062369 TOT =    11.895427
:OTO001: CHARGE SPHERE  1 UP =    14.063274 DN =    11.190624 TOT =    25.253898
:OTO002: CHARGE SPHERE  2 UP =    11.518701 DN =    13.732387 TOT =    25.251088
:OTO003: CHARGE SPHERE  3 UP =    22.962189 DN =    20.870964 TOT =    43.833153

:NEC02: NUCLEAR AND ELECTRONIC CHARGE    142.00000   142.00000
     
       CONVERGENCE TEST
:DTO001: DIFFERENCE SPHERE  1 UP =  0.1626955 DN =  0.4733967 TOT =  0.6360921
:DTO002: DIFFERENCE SPHERE  2 UP =  0.5407048 DN =  0.1701493 TOT =  0.7108541
:DTO003: DIFFERENCE SPHERE  3 UP =  0.6722657 DN =  0.2320417 TOT =  0.9043074

:DIS  :  CHARGE DISTANCE       ( 0.6722657 for atom    3 spin 1)      1.5777805
 PW Mixed is           49
 
******************************************************
* MULTISECANT MIXING VER9 RELEASE 10.4.0              *
* Slow Mode, cautious                                *
* Fixed density scale                                *
* Regularization       1.000E-04                     *
* Step Trust Radius    0.75000                       *
* Trust Upper Limit    2.000E+00                     *
* Max Number of Memory Steps   12                    *
******************************************************
 
:PWTMP   1.1765E+02  4.5917E+02  3.5807E+02
:PLANE:  PW TOTAL      2.6586 DISTAN   7.48E-01  2.81E+01 %
:CHARG:  CLM/ATOM    212.0493 DISTAN   4.48E-01  2.11E-01 %
INFO: Reducing dbase  1.00000E-02 1.57778E+00 7.96117E-03
 
Step History
        DMIX         DMIXT        Red     Pred      Trust     Lambda    MagRel    MagAbs     Beta
  1   3.5000E-02   3.5000E-02 -1.00E+00  1.00E+00 -1.00E+01  1.00E+00  3.50E-02  3.50E-02  1.00E+00
  2   1.6736E-02   1.6736E-02  7.18E-01  1.00E+00 -1.00E+01  1.00E+00  1.67E-02  3.36E-02  1.00E+00
  3   2.2825E-02   2.2825E-02 -1.00E+00  1.00E+00 -1.00E+01  1.00E+00  2.28E-02  3.30E-02  1.00E+00
:JACOBIANS    7.442E-01   8.263E-04
  
:NORMS:  1/Froebius, Min, Max, Used   0.9962E+00  0.4969E+00  0.9964E+00  0.9964E+00
:INFO :  Number of Memory Steps    2 Skipping    0
:INFO :  SLambda=    0.0803057449  Max    0.0803057449
:PREDicted Charge, CTotal, PW Trust    2.417E-03   7.094E-03   3.848E-01
:PREDicted DMix, Beta, BLim   5.4189E-02  9.9213E-01  5.6076E-01

Eigenvalues, unscaled except for SY+YY
   #     SY Real        SY Imag          SS             YY         SY+YY Real      SY+YY Imag
   1   1.986770E+00   0.000000E+00   1.984969E+00   1.999139E+00   2.158689E+00   0.000000E+00
   2  -2.746247E-14   0.000000E+00   6.326090E-17   8.605228E-04   8.605261E-04   0.000000E+00
 
:INFO :  Singular value  2.159E+00 Weight  1.000E+00 Projection  2.735E-04
:INFO :  Singular value  8.605E-04 Weight  9.488E-01 Projection -2.703E+00
:RANK :  ACTIVE   1.95/2  =  97.44 % ; YY RANK   1.95/2  =  97.44 %
 
:DLIM :  Beta Active  9.941E-01
:BLIM :  VZERO Control Off
:TRUST:  Step 1.41E-01  Charge 7.50E-02 (e) CTO  2.50E-01 (e) PW  3.85E-01 (e)
:DIRM :  MEMORY  2/12 SCALE   1.000 RED  0.97 PRED  1.00 NEXT  1.00 BETA  0.99
:TRAVE:  Charge 1.64E-02 (e) CTO  4.46E-02 (e) PW  2.05E-02 (e)
:DIRP :  |MSR1|= 1.494E-02 |PRATT|= 3.741E-01 ANGLE=   4.3 DEGREES
:DIRQ :  |MSR1|= 5.269E-02 |PRATT|= 1.345E+00 ANGLE=   3.4 DEGREES
:DIRT :  |MSR1|= 5.477E-02 |PRATT|= 1.396E+00 ANGLE=   3.5 DEGREES
:MIX  :   MSD1   REGULARIZATION:  2.00E-04 GREED: 0.03927  Newton 1.00  0.0392                
     
       CHARGES OF MIXED CHARGE DENSITY
:CTO   : INTERSTITIAL     UP =     2.449226 DN =     1.424075 TOT =     3.873301
:CPC   : PW Pseudocharge  UP =     6.802825 DN =     5.085291 TOT =    11.888117
:CTO001: CHARGE SPHERE  1 UP =    14.057252 DN =    11.191721 TOT =    25.248973
:CTO002: CHARGE SPHERE  2 UP =    11.505870 DN =    13.738358 TOT =    25.244228
:CTO003: CHARGE SPHERE  3 UP =    22.927364 DN =    20.889385 TOT =    43.816749

       SPIN MAGNETIC MOMENTS OF MIXED CHARGE DENSITY
:MMINT:  MAGNETIC MOMENT IN INTERSTITIAL  =    1.02515
:MMI001: MAGNETIC MOMENT IN SPHERE   1    =    2.86553
:MMI002: MAGNETIC MOMENT IN SPHERE   2    =   -2.23249
:MMI003: MAGNETIC MOMENT IN SPHERE   3    =    2.03798
:MMTOT:  SPIN MAGNETIC MOMENT IN CELL     =    5.73415

:NEC03: NUCLEAR AND ELECTRONIC CHARGE    142.00000   142.00000

PW CHANGE     H    K    L      Current       Change    Residue
:PUP001:      0    0    0  2.58386406E-02 -6.983E-05 -2.022E-03
:PUP002:     -1   -1   -1  5.07936720E-03 -3.863E-05 -1.179E-03
:PUP003:      0    0   -2 -1.34585481E-02  2.001E-04  5.581E-03
:PUP004:      0   -2   -2 -3.32311583E-03  1.206E-04  1.319E-03
:PUP005:     -1   -1   -3 -4.67697991E-03  1.996E-04  4.859E-03
:PUP006:     -2   -2   -2  5.46411291E-03 -1.220E-04 -2.802E-03
:PUP007:      0    0   -4 -1.19416364E-02  2.336E-04  5.520E-03
:PUP008:     -1   -3   -3 -4.38372131E-03  1.854E-05  3.407E-04
:PUP009:      0   -2   -4  1.80566608E-02 -4.738E-04 -1.162E-02
:PUP010:     -2   -2   -4 -3.24342901E-02  9.291E-04  2.292E-02
:PUP011:     -3   -3   -3 -7.72659420E-04  1.830E-05  4.397E-04
:PUP012:     -1   -1   -5 -2.28832630E-03  7.294E-05  1.810E-03
  
:PDN001:      0    0    0  1.81790152E-02  1.740E-04  4.324E-03
:PDN002:     -1   -1   -1 -4.97066618E-03  3.526E-05  1.114E-03
:PDN003:      0    0   -2 -5.10549345E-03  9.457E-06  3.570E-04
:PDN004:      0   -2   -2  5.55195411E-03 -2.115E-04 -6.414E-03
:PDN005:     -1   -1   -3  4.79589040E-03 -1.962E-04 -4.724E-03
:PDN006:     -2   -2   -2  8.04732266E-04  3.986E-05  1.076E-03
:PDN007:      0    0   -4 -8.50752084E-03  1.098E-04  2.512E-03
:PDN008:     -1   -3   -3  4.41268870E-03 -1.806E-05 -3.100E-04
:PDN009:      0   -2   -4  7.13586074E-03 -1.009E-04 -2.533E-03
:PDN010:     -2   -2   -4 -2.67652634E-02  7.448E-04  1.840E-02
:PDN011:     -3   -3   -3  7.78805152E-04 -1.496E-05 -3.671E-04
:PDN012:     -1   -1   -5  2.28247770E-03 -7.812E-05 -1.939E-03

:ENE  : ********** TOTAL ENERGY IN Ry =       -24232.19287170

 Flat Integration
 New Mode for Coulomb Integral
 Consistent 3/8+Simpson combinations
 Extension of core to zero
 LDM version in phi
 Fifth-order quadrature in outwin


            ---------
:ITE004:  4. ITERATION
            ---------

:NATO :    3 INDEPENDENT AND    4 TOTAL ATOMS IN UNITCELL
       SUBSTANCE: FeRh                                                        

       LATTICE                      = F   
:POT  : POTENTIAL OPTION EX_PBE EC_PBE VX_PBE VC_PBE
:LAT  : LATTICE CONSTANTS= 11.27222 11.27222 11.27222    1.571    1.571    1.571
:VOL  : UNIT CELL VOLUME =     358.07036
       MODE OF CALCULATION IS       = RELA
       SPINPOLARIZED CALCULATION
:IFFT  : FFT-parameters:   90   90   90 Factor: 2.00


   CONVERGENCE PARAMETER FOR PSEUDOCHARGE: NCON=  9
   MAXIMAL VALUE OF RMT(JATOM)*ABSK(NKK) : RK  =29.05063


:VKCOUL :  VK-COUL convergence: 0.548E-07
       ATOMNUMBER=  1 Fe1        VCOUL-ZERO =  0.62263E+00
       ATOMNUMBER=  2 Fe2        VCOUL-ZERO =  0.62170E+00
       ATOMNUMBER=  3 Rh1        VCOUL-ZERO =  0.59236E+00
:FIT001: LUSE= 13 SIGMA OF V-XC FIT FOR ATOM  1  0.6082418E-02
:FIT001: LUSE= 13 SIGMA OF V-XC FIT FOR ATOM  1  0.1964336E-02
:FIT002: LUSE= 13 SIGMA OF V-XC FIT FOR ATOM  2  0.8712852E-02
:FIT002: LUSE= 13 SIGMA OF V-XC FIT FOR ATOM  2  0.5699547E-02
:FIT003: LUSE= 13 SIGMA OF V-XC FIT FOR ATOM  3  0.1012493E-02
:FIT003: LUSE= 13 SIGMA OF V-XC FIT FOR ATOM  3  0.4549026E-02
:DEN  : DENSITY INTEGRAL  =         -9878.96483114   (Ry)
       ELS_POTENTIAL_AT Z=0 and Z=0.5:  -0.20725  -0.20725
       ELS_POTENTIAL_AT Y=0 and Y=0.5:   0.00000   0.00000
:VZERO:v0,v0c,v0x  -0.73751  -0.20725  -0.53026 v5,v5c,v5x  -0.73751  -0.20725  -0.53026
:VZERY:v0,v0c,v0x  -0.81171   0.00000  -0.81171 v5,v5c,v5x  -0.81171   0.00000  -0.81171
:VZERX:v0,v0c,v0x  -0.81171   0.00000  -0.81171 v5,v5c,v5x  -0.81171   0.00000  -0.81171
:LMAX-WF:   10   Non-Spherical LMAX:   4

          ATOMIC SPHERE DEPENDENT PARAMETERS FOR ATOM  Fe1       
:e__0001: OVERALL ENERGY PARAMETER IS    0.5740
          OVERALL BASIS SET ON ATOM IS LAPW
:E1_0001: E( 1)=    0.5740
             APW+lo
:E1_0001: E( 1)=   -3.2312   E(BOTTOM)=   -3.264   E(TOP)=   -3.199  1  2   171
             LOCAL ORBITAL
:E2_0001: E( 2)=    0.5553   E(BOTTOM)=    0.316   E(TOP)=    0.795  0  1   123
             APW+lo
:E0_0001: E( 0)=    0.5740
             APW+lo

          ATOMIC SPHERE DEPENDENT PARAMETERS FOR ATOM  Fe2       
:e__0002: OVERALL ENERGY PARAMETER IS    0.5740
          OVERALL BASIS SET ON ATOM IS LAPW
:E1_0002: E( 1)=    0.5740
             APW+lo
:E1_0002: E( 1)=   -3.0513   E(BOTTOM)=   -3.085   E(TOP)=   -3.017  1  2   172
             LOCAL ORBITAL
:E2_0002: E( 2)=    0.7206   E(BOTTOM)=    0.466   E(TOP)=    0.975  0  1   119
             APW+lo
:E0_0002: E( 0)=    0.5740
             APW+lo

          ATOMIC SPHERE DEPENDENT PARAMETERS FOR ATOM  Rh1       
:e__0003: OVERALL ENERGY PARAMETER IS    0.5740
          OVERALL BASIS SET ON ATOM IS LAPW
:E1_0003: E( 1)=    0.5740
             APW+lo
:E1_0003: E( 1)=   -2.6892   E(BOTTOM)=   -2.789   E(TOP)=   -2.590  2  3   158
             LOCAL ORBITAL
:E2_0003: E( 2)=    0.5661   E(BOTTOM)=    0.112   E(TOP)=    1.020  1  2   146
             APW+lo
:E0_0003: E( 0)=    0.5740
             APW+lo

       K=   0.00000   0.00000   0.00000            1
:RKM  : MATRIX SIZE   185LOs:  48  RKM= 6.64  WEIGHT= 1.00  PGR:    
       EIGENVALUES ARE:
:EIG00001:      -3.2244013   -3.2244013   -3.2244013   -3.0442993   -3.0442993
:EIG00006:      -3.0442993   -2.6721262   -2.6721262   -2.6721262   -2.6642972
:EIG00011:      -2.6642972   -2.6642972    0.0511053    0.3095401    0.3095401
:EIG00016:       0.3742134    0.3742134    0.3742134    0.5024065    0.5024065
:EIG00021:       0.5024065    0.5840228    0.5840228    0.5840228    0.6594571
:EIG00026:       0.6594571    0.7198617    0.7198617    0.8089595    0.8089595
:EIG00031:       0.8107429    0.8107429    0.8107429    1.2600541    1.3100602
:EIG00036:       1.3100602    1.3100602    1.3124797    1.3124797    1.3124797
:EIG00041:       1.4242401    1.4242401    1.4242401    1.4611189    1.9754920
:EIG00046:       1.9754920    2.0622239    2.1262219    2.1262219    2.1262219
 
       ********************************************************

:KPT   :      NUMBER OF K-POINTS:    47
:LMAX-WF:   10   Non-Spherical LMAX:   4

          ATOMIC SPHERE DEPENDENT PARAMETERS FOR ATOM  Fe1       
:e__0001: OVERALL ENERGY PARAMETER IS    0.5740
          OVERALL BASIS SET ON ATOM IS LAPW
:E1_0001: E( 1)=    0.5740
             APW+lo
:E1_0001: E( 1)=   -3.0415   E(BOTTOM)=   -3.075   E(TOP)=   -3.008  1  2   183
             LOCAL ORBITAL
:E2_0001: E( 2)=    0.7355   E(BOTTOM)=    0.486   E(TOP)=    0.985  0  1   123
             APW+lo
:E0_0001: E( 0)=    0.5740
             APW+lo

          ATOMIC SPHERE DEPENDENT PARAMETERS FOR ATOM  Fe2       
:e__0002: OVERALL ENERGY PARAMETER IS    0.5740
          OVERALL BASIS SET ON ATOM IS LAPW
:E1_0002: E( 1)=    0.5740
             APW+lo
:E1_0002: E( 1)=   -3.2333   E(BOTTOM)=   -3.265   E(TOP)=   -3.201  1  2   154
             LOCAL ORBITAL
:E2_0002: E( 2)=    0.5578   E(BOTTOM)=    0.322   E(TOP)=    0.794  0  1   125
             APW+lo
:E0_0002: E( 0)=    0.5740
             APW+lo

          ATOMIC SPHERE DEPENDENT PARAMETERS FOR ATOM  Rh1       
:e__0003: OVERALL ENERGY PARAMETER IS    0.5740
          OVERALL BASIS SET ON ATOM IS LAPW
:E1_0003: E( 1)=    0.5740
             APW+lo
:E1_0003: E( 1)=   -2.5934   E(BOTTOM)=   -2.691   E(TOP)=   -2.496  2  3   175
             LOCAL ORBITAL
:E2_0003: E( 2)=    0.5740   E(BOTTOM)=    0.222   E(TOP)= -200.000  1 -1    89
             APW+lo
:E0_0003: E( 0)=    0.5740
             APW+lo

       K=   0.00000   0.00000   0.00000            1
:RKM  : MATRIX SIZE   185LOs:  48  RKM= 6.64  WEIGHT= 1.00  PGR:    
       EIGENVALUES ARE:
:EIG00001:      -3.2263852   -3.2263852   -3.2263852   -3.0344140   -3.0344140
:EIG00006:      -3.0344140   -2.5764152   -2.5764152   -2.5764152   -2.5688939
:EIG00011:      -2.5688939   -2.5688939    0.1432369    0.3935904    0.3935904
:EIG00016:       0.4750758    0.4750758    0.4750758    0.5347862    0.5347862
:EIG00021:       0.5347862    0.6564568    0.6564568    0.6564568    0.6881640
:EIG00026:       0.6881640    0.8258809    0.8258809    0.8323399    0.8323399
:EIG00031:       0.8590692    0.8590692    0.8590692    1.3095982    1.3955774
:EIG00036:       1.3955774    1.3955774    1.3990226    1.3990226    1.3990226
:EIG00041:       1.5048918    1.5048918    1.5048918    1.5718661    2.0620901
:EIG00046:       2.0620901    2.1351478    2.2358772    2.2358772    2.2358772
 
       ********************************************************

:KPT   :      NUMBER OF K-POINTS:    47
:GAP (global)   :    0.0    Ry =     0.0   eV (metal)
:GAP (this spin):    0.0    Ry =     0.0   eV (metal)
         Bandranges (emin - emax) and occupancy:
:BAN00021:  21    0.446834    0.534882  1.00000000
:BAN00022:  22    0.488135    0.591046  1.00000000
:BAN00023:  23    0.489931    0.636225  1.00000000
:BAN00024:  24    0.494962    0.638429  1.00000000
:BAN00025:  25    0.603208    0.659457  1.00000000
:BAN00026:  26    0.638944    0.671793  1.00000000
:BAN00027:  27    0.647428    0.719862  1.00000000
:BAN00028:  28    0.673232    0.719862  1.00000000
:BAN00029:  29    0.683183    0.808960  0.98354227
:BAN00030:  30    0.710320    0.808960  0.77881639
:BAN00031:  31    0.760414    0.810743  0.00463128
:BAN00032:  32    0.776391    0.810743  0.00000000
:BAN00033:  33    0.797164    0.842655  0.00000000
:BAN00034:  34    0.825151    1.260054  0.00000000
:BAN00035:  35    0.828363    1.310060  0.00000000
:BAN00036:  36    0.836405    1.310060  0.00000000
        Energy to separate low and high energystates:    0.00111


:NOE  : NUMBER OF ELECTRONS          =   58.000

:FER  : F E R M I - ENERGY(TETRAH.M.)=   0.7675922220
:GMA  : POTENTIAL AND CHARGE CUT-OFF  12.00 Ry**.5

:POS001: ATOM    1 X,Y,Z = 0.00000 0.00000 0.00000  MULT= 1  ZZ= 26.000  Fe1       

       LMMAX  5
       LM=   0 0  4 0  4 4  6 0  6 4

:CHA001: TOTAL VALENCE CHARGE INSIDE SPHERE   1 =   7.9191    (RMT=  2.4300 )
:PCS001: PARTIAL CHARGES SPHERE =  1 S,P,D,F,      D-EG,D-T2G 
:QTL001: 0.2518 3.2928 4.3355 0.0284 0.0000 0.0000 0.0000 1.7750 2.5605 0.0000 0.0000 0.0000
        Q-s-low E-s-low   Q-p-low E-p-low   Q-d-low E-d-low   Q-f-low E-f-low
:EPL001:  0.0006 -2.6770    2.9952 -3.2241    0.0014 -2.6724    0.0006 -2.6726
        Q-s-hi  E-s-hi    Q-p-hi  E-p-hi    Q-d-hi  E-d-hi    Q-f-hi  E-f-hi 
:EPH001:  0.2512  0.2915    0.2976  0.4607    4.3342  0.5727    0.0279  0.5287

:POS002: ATOM    2 X,Y,Z = 0.50000 0.00000 0.00000  MULT= 1  ZZ= 26.000  Fe2       

       LMMAX  5
       LM=   0 0  4 0  4 4  6 0  6 4

:CHA002: TOTAL VALENCE CHARGE INSIDE SPHERE   2 =   5.1552    (RMT=  2.4300 )
:PCS002: PARTIAL CHARGES SPHERE =  2 S,P,D,F,      D-EG,D-T2G 
:QTL002: 0.2244 3.2579 1.6341 0.0284 0.0000 0.0000 0.0000 0.4198 1.2143 0.0000 0.0000 0.0000
        Q-s-low E-s-low   Q-p-low E-p-low   Q-d-low E-d-low   Q-f-low E-f-low
:EPL002:  0.0005 -2.6776    2.9946 -3.0440    0.0013 -2.6732    0.0006 -2.6738
        Q-s-hi  E-s-hi    Q-p-hi  E-p-hi    Q-d-hi  E-d-hi    Q-f-hi  E-f-hi 
:EPH002:  0.2239  0.3182    0.2633  0.4660    1.6328  0.6044    0.0278  0.5325

:POS003: ATOM    3 X,Y,Z = 0.25000 0.25000 0.25000  MULT= 2  ZZ= 45.000  Rh1       

       LMMAX  6
       LM=   0 0  4 0  4 4  6 0  6 4 -3 2

:CHA003: TOTAL VALENCE CHARGE INSIDE SPHERE   3 =   7.0754    (RMT=  2.4300 )
:PCS003: PARTIAL CHARGES SPHERE =  3 S,P,D,F,      D-EG,D-T2G 
:QTL003: 0.1963 3.1911 3.6590 0.0231 0.0000 0.0000 0.0000 1.4743 2.1846 0.0000 0.0000 0.0000
        Q-s-low E-s-low   Q-p-low E-p-low   Q-d-low E-d-low   Q-f-low E-f-low
:EPL003:  0.0002 -3.0603    2.9789 -2.6689    0.0004 -3.0702    0.0002 -3.0688
        Q-s-hi  E-s-hi    Q-p-hi  E-p-hi    Q-d-hi  E-d-hi    Q-f-hi  E-f-hi 
:EPH003:  0.1962  0.3261    0.2122  0.4964    3.6585  0.5144    0.0229  0.5709

:CHA  : TOTAL VALENCE CHARGE INSIDE UNIT CELL =      29.766990

:SUM  : SUM OF EIGENVALUES =         -25.688131331

:GAP (global)   :    0.0    Ry =     0.0   eV (metal)
:GAP (this spin):    0.0    Ry =     0.0   eV (metal)
         Bandranges (emin - emax) and occupancy:
:BAN00019:  19    0.490037    0.549707  1.00000000
:BAN00020:  20    0.519221    0.601827  1.00000000
:BAN00021:  21    0.523531    0.637505  1.00000000
:BAN00022:  22    0.573547    0.656457  1.00000000
:BAN00023:  23    0.580831    0.671725  1.00000000
:BAN00024:  24    0.580950    0.688547  1.00000000
:BAN00025:  25    0.665722    0.703087  1.00000000
:BAN00026:  26    0.687239    0.713140  1.00000000
:BAN00027:  27    0.701272    0.825881  0.94466505
:BAN00028:  28    0.724466    0.825881  0.86128625
:BAN00029:  29    0.744662    0.832340  0.42705876
:BAN00030:  30    0.790822    0.832340  0.00000000
:BAN00031:  31    0.803658    0.859069  0.00000000
:BAN00032:  32    0.816457    0.859610  0.00000000
:BAN00033:  33    0.838037    0.885492  0.00000000
:BAN00034:  34    0.871439    1.309598  0.00000000
        Energy to separate low and high energystates:    0.09324


:NOE  : NUMBER OF ELECTRONS          =   58.000

:FER  : F E R M I - ENERGY(TETRAH.M.)=   0.7675922220
:GMA  : POTENTIAL AND CHARGE CUT-OFF  12.00 Ry**.5

:POS001: ATOM    1 X,Y,Z = 0.00000 0.00000 0.00000  MULT= 1  ZZ= 26.000  Fe1       

       LMMAX  5
       LM=   0 0  4 0  4 4  6 0  6 4

:CHA001: TOTAL VALENCE CHARGE INSIDE SPHERE   1 =   5.1962    (RMT=  2.4300 )
:PCS001: PARTIAL CHARGES SPHERE =  1 S,P,D,F,      D-EG,D-T2G 
:QTL001: 0.2344 3.2471 1.6822 0.0242 0.0000 0.0000 0.0000 0.3739 1.3083 0.0000 0.0000 0.0000
        Q-s-low E-s-low   Q-p-low E-p-low   Q-d-low E-d-low   Q-f-low E-f-low
:EPL001:  0.0005 -2.5822    2.9948 -3.0341    0.0013 -2.5780    0.0005 -2.5788
[...]
             APW+lo
:E1_0001: E( 1)=   -3.1764   E(BOTTOM)=   -3.209   E(TOP)=   -3.144  1  2   173
             LOCAL ORBITAL
:E2_0001: E( 2)=    0.6161   E(BOTTOM)=    0.375   E(TOP)=    0.857  0  1   130
             APW+lo
:E0_0001: E( 0)=    0.4559
             APW+lo

          ATOMIC SPHERE DEPENDENT PARAMETERS FOR ATOM  Fe2       
:e__0002: OVERALL ENERGY PARAMETER IS    0.4559
          OVERALL BASIS SET ON ATOM IS LAPW
:E1_0002: E( 1)=    0.4559
             APW+lo
:E1_0002: E( 1)=   -3.4380   E(BOTTOM)=   -3.467   E(TOP)=   -3.409  1  2   133
             LOCAL ORBITAL
:E2_0002: E( 2)=    0.3852   E(BOTTOM)=    0.175   E(TOP)=    0.596  0  1   125
             APW+lo
:E0_0002: E( 0)=    0.4559
             APW+lo

          ATOMIC SPHERE DEPENDENT PARAMETERS FOR ATOM  Rh1       
:e__0003: OVERALL ENERGY PARAMETER IS    0.4559
          OVERALL BASIS SET ON ATOM IS LAPW
:E1_0003: E( 1)=    0.4559
             APW+lo
:E1_0003: E( 1)=   -2.7868   E(BOTTOM)=   -2.880   E(TOP)=   -2.693  2  3   159
             LOCAL ORBITAL
:E2_0003: E( 2)=    0.5029   E(BOTTOM)=    0.070   E(TOP)=    0.936  1  2   145
             APW+lo
:E0_0003: E( 0)=    0.4559
             APW+lo

       K=   0.00000   0.00000   0.00000            1
:RKM  : MATRIX SIZE   185LOs:  48  RKM= 6.64  WEIGHT= 1.00  PGR:    
       EIGENVALUES ARE:
:EIG00001:      -3.4317870   -3.4317870   -3.4317870   -3.1696897   -3.1696897
:EIG00006:      -3.1696897   -2.7706133   -2.7706133   -2.7706133   -2.7635926
:EIG00011:      -2.7635926   -2.7635926    0.0370430    0.2465531    0.2465531
:EIG00016:       0.3322446    0.3322446    0.3322446    0.3780404    0.3780404
:EIG00021:       0.3780404    0.4977688    0.4977688    0.5064142    0.5064142
:EIG00026:       0.5064142    0.6510698    0.6510698    0.6979981    0.6979981
:EIG00031:       0.6979981    0.7203680    0.7203680    1.2144483    1.2600768
:EIG00036:       1.2600768    1.2600768    1.2863381    1.2863381    1.2863381
:EIG00041:       1.3724394    1.3724394    1.3724394    1.4459472    1.9219610
:EIG00046:       1.9219610    2.0309291    2.1255731    2.1255731    2.1255731
 
       ********************************************************

:KPT   :      NUMBER OF K-POINTS:    47
:GAP (global)   :    0.0    Ry =     0.0   eV (metal)
:GAP (this spin):    0.0    Ry =     0.0   eV (metal)
         Bandranges (emin - emax) and occupancy:
:BAN00020:  20    0.379116    0.449765  1.00000000
:BAN00021:  21    0.380144    0.478518  1.00000000
:BAN00022:  22    0.420305    0.499419  1.00000000
:BAN00023:  23    0.429010    0.510360  1.00000000
:BAN00024:  24    0.436961    0.519942  1.00000000
:BAN00025:  25    0.490257    0.533328  1.00000000
:BAN00026:  26    0.506257    0.546993  1.00000000
:BAN00027:  27    0.541570    0.651329  1.00000000
:BAN00028:  28    0.559809    0.651329  1.00027501
:BAN00029:  29    0.592153    0.698146  0.97726368
:BAN00030:  30    0.643238    0.698146  0.02239871
:BAN00031:  31    0.662930    0.715131  0.00000000
:BAN00032:  32    0.675254    0.728979  0.00000000
:BAN00033:  33    0.709782    0.735747  0.00000000
:BAN00034:  34    0.728547    1.214849  0.00000000
:BAN00035:  35    0.740380    1.260578  0.00000000
        Energy to separate low and high energystates:   -0.01246


:NOE  : NUMBER OF ELECTRONS          =   58.000

:FER  : F E R M I - ENERGY(TETRAH.M.)=   0.6555382363
:GMA  : POTENTIAL AND CHARGE CUT-OFF  12.00 Ry**.5

:POS001: ATOM    1 X,Y,Z = 0.00000 0.00000 0.00000  MULT= 1  ZZ= 26.000  Fe1       

       LMMAX  5
       LM=   0 0  4 0  4 4  6 0  6 4

:CHA001: TOTAL VALENCE CHARGE INSIDE SPHERE   1 =   8.1364    (RMT=  2.4300 )
:PCS001: PARTIAL CHARGES SPHERE =  1 S,P,D,F,      D-EG,D-T2G 
:QTL001: 0.2500 3.2522 4.6011 0.0240 0.0000 0.0000 0.0000 1.8763 2.7248 0.0000 0.0000 0.0000
        Q-s-low E-s-low   Q-p-low E-p-low   Q-d-low E-d-low   Q-f-low E-f-low
:EPL001:  0.0005 -2.7751    2.9959 -3.4288    0.0012 -2.7710    0.0005 -2.7709
        Q-s-hi  E-s-hi    Q-p-hi  E-p-hi    Q-d-hi  E-d-hi    Q-f-hi  E-f-hi 
:EPH001:  0.2495  0.2670    0.2563  0.4086    4.5999  0.4157    0.0235  0.4615

:POS002: ATOM    2 X,Y,Z = 0.50000 0.00000 0.00000  MULT= 1  ZZ= 26.000  Fe2       

       LMMAX  5
       LM=   0 0  4 0  4 4  6 0  6 4

:CHA002: TOTAL VALENCE CHARGE INSIDE SPHERE   2 =   4.9749    (RMT=  2.4300 )
:PCS002: PARTIAL CHARGES SPHERE =  2 S,P,D,F,      D-EG,D-T2G 
:QTL002: 0.2247 3.2332 1.4828 0.0251 0.0000 0.0000 0.0000 0.2745 1.2083 0.0000 0.0000 0.0000
        Q-s-low E-s-low   Q-p-low E-p-low   Q-d-low E-d-low   Q-f-low E-f-low
:EPL002:  0.0005 -2.7755    2.9950 -3.1707    0.0012 -2.7716    0.0005 -2.7758
        Q-s-hi  E-s-hi    Q-p-hi  E-p-hi    Q-d-hi  E-d-hi    Q-f-hi  E-f-hi 
:EPH002:  0.2243  0.2857    0.2382  0.4150    1.4815  0.4878    0.0246  0.4693

:POS003: ATOM    3 X,Y,Z = 0.25000 0.25000 0.25000  MULT= 2  ZZ= 45.000  Rh1       

       LMMAX  6
       LM=   0 0  4 0  4 4  6 0  6 4 -3 2

:CHA003: TOTAL VALENCE CHARGE INSIDE SPHERE   3 =   6.8228    (RMT=  2.4300 )
:PCS003: PARTIAL CHARGES SPHERE =  3 S,P,D,F,      D-EG,D-T2G 
:QTL003: 0.1777 3.1546 3.4683 0.0173 0.0000 0.0000 0.0000 1.3130 2.1553 0.0000 0.0000 0.0000
        Q-s-low E-s-low   Q-p-low E-p-low   Q-d-low E-d-low   Q-f-low E-f-low
:EPL003:  0.0001 -3.2075    2.9807 -2.7673    0.0004 -3.2205    0.0002 -3.2186
        Q-s-hi  E-s-hi    Q-p-hi  E-p-hi    Q-d-hi  E-d-hi    Q-f-hi  E-f-hi 
:EPH003:  0.1775  0.2815    0.1739  0.4303    3.4680  0.4452    0.0171  0.4578

:CHA  : TOTAL VALENCE CHARGE INSIDE UNIT CELL =      28.999937

:SUM  : SUM OF EIGENVALUES =         -29.227681000

:GAP (global)   :    0.0    Ry =     0.0   eV (metal)
:GAP (this spin):    0.0    Ry =     0.0   eV (metal)
         Bandranges (emin - emax) and occupancy:
:BAN00021:  21    0.378040    0.478086  1.00000000
:BAN00022:  22    0.420139    0.497769  1.00000000
:BAN00023:  23    0.428943    0.508739  1.00000000
:BAN00024:  24    0.436907    0.519102  1.00000000
:BAN00025:  25    0.488982    0.532363  1.00000000
:BAN00026:  26    0.506414    0.546736  1.00000000
:BAN00027:  27    0.540781    0.651070  1.00000000
:BAN00028:  28    0.558916    0.651070  1.00028172
:BAN00029:  29    0.591513    0.697998  0.97735113
:BAN00030:  30    0.642976    0.697998  0.02247765
:BAN00031:  31    0.663464    0.715430 -0.00004790
:BAN00032:  32    0.676075    0.729434  0.00000000
:BAN00033:  33    0.710401    0.735949  0.00000000
:BAN00034:  34    0.729009    1.214448  0.00000000
:BAN00035:  35    0.740069    1.260077  0.00000000
:BAN00036:  36    0.744906    1.260077  0.00000000
        Energy to separate low and high energystates:   -0.01296


:NOE  : NUMBER OF ELECTRONS          =   58.000

:FER  : F E R M I - ENERGY(TETRAH.M.)=   0.6555382363
:GMA  : POTENTIAL AND CHARGE CUT-OFF  12.00 Ry**.5

:POS001: ATOM    1 X,Y,Z = 0.00000 0.00000 0.00000  MULT= 1  ZZ= 26.000  Fe1       

       LMMAX  5
       LM=   0 0  4 0  4 4  6 0  6 4

:CHA001: TOTAL VALENCE CHARGE INSIDE SPHERE   1 =   4.9630    (RMT=  2.4300 )
:PCS001: PARTIAL CHARGES SPHERE =  1 S,P,D,F,      D-EG,D-T2G 
:QTL001: 0.2245 3.2330 1.4712 0.0251 0.0000 0.0000 0.0000 0.2716 1.1996 0.0000 0.0000 0.0000
        Q-s-low E-s-low   Q-p-low E-p-low   Q-d-low E-d-low   Q-f-low E-f-low
:EPL001:  0.0005 -2.7759    2.9950 -3.1694    0.0012 -2.7720    0.0005 -2.7762
        Q-s-hi  E-s-hi    Q-p-hi  E-p-hi    Q-d-hi  E-d-hi    Q-f-hi  E-f-hi 
:EPH001:  0.2240  0.2855    0.2380  0.4147    1.4700  0.4876    0.0246  0.4689

:POS002: ATOM    2 X,Y,Z = 0.50000 0.00000 0.00000  MULT= 1  ZZ= 26.000  Fe2       

       LMMAX  5
       LM=   0 0  4 0  4 4  6 0  6 4

:CHA002: TOTAL VALENCE CHARGE INSIDE SPHERE   2 =   8.1419    (RMT=  2.4300 )
:PCS002: PARTIAL CHARGES SPHERE =  2 S,P,D,F,      D-EG,D-T2G 
:QTL002: 0.2504 3.2527 4.6056 0.0240 0.0000 0.0000 0.0000 1.8774 2.7282 0.0000 0.0000 0.0000
        Q-s-low E-s-low   Q-p-low E-p-low   Q-d-low E-d-low   Q-f-low E-f-low
:EPL002:  0.0005 -2.7755    2.9959 -3.4315    0.0012 -2.7713    0.0005 -2.7713
        Q-s-hi  E-s-hi    Q-p-hi  E-p-hi    Q-d-hi  E-d-hi    Q-f-hi  E-f-hi 
:EPH002:  0.2499  0.2665    0.2568  0.4083    4.6044  0.4135    0.0235  0.4613

:POS003: ATOM    3 X,Y,Z = 0.25000 0.25000 0.25000  MULT= 2  ZZ= 45.000  Rh1       

       LMMAX  6
       LM=   0 0  4 0  4 4  6 0  6 4 -3 2

:CHA003: TOTAL VALENCE CHARGE INSIDE SPHERE   3 =   6.8258    (RMT=  2.4300 )
:PCS003: PARTIAL CHARGES SPHERE =  3 S,P,D,F,      D-EG,D-T2G 
:QTL003: 0.1777 3.1547 3.4713 0.0172 0.0000 0.0000 0.0000 1.3135 2.1578 0.0000 0.0000 0.0000
        Q-s-low E-s-low   Q-p-low E-p-low   Q-d-low E-d-low   Q-f-low E-f-low
:EPL003:  0.0001 -3.2078    2.9807 -2.7677    0.0004 -3.2209    0.0002 -3.2189
        Q-s-hi  E-s-hi    Q-p-hi  E-p-hi    Q-d-hi  E-d-hi    Q-f-hi  E-f-hi 
:EPH003:  0.1776  0.2811    0.1740  0.4300    3.4709  0.4449    0.0171  0.4567

:CHA  : TOTAL VALENCE CHARGE INSIDE UNIT CELL =      29.000063

:SUM  : SUM OF EIGENVALUES =         -29.248596317


        1.ATOM      Fe1                   5 CORE STATES
:1S 001: 1S                -513.191853614 Ry
:2S 001: 2S                 -59.178072526 Ry
:2PP001: 2P*                -50.864894204 Ry
:2P 001: 2P                 -49.948786983 Ry
:3S 001: 3S                  -5.926428152 Ry

        2.ATOM      Fe2                   5 CORE STATES
:1S 002: 1S                -513.194668493 Ry
:2S 002: 2S                 -59.063291084 Ry
:2PP002: 2P*                -50.780205100 Ry
:2P 002: 2P                 -49.861532384 Ry
:3S 002: 3S                  -5.661976229 Ry

        3.ATOM      Rh1                  10 CORE STATES
:1S 003: 1S               -1691.497888306 Ry
:2S 003: 2S                -244.393598767 Ry
:2PP003: 2P*               -226.203298089 Ry
:2P 003: 2P                -215.574074301 Ry
:3S 003: 3S                 -42.921437578 Ry
:3PP003: 3P*                -35.803484006 Ry
:3P 003: 3P                 -33.974654127 Ry
:3DD003: 3D*                -21.377826163 Ry
:3D 003: 3D                 -21.017115633 Ry
:4S 003: 4S                  -5.128030534 Ry

        1.ATOM      Fe1                   5 CORE STATES
:1S 001: 1S                -513.192216715 Ry
:2S 001: 2S                 -59.061113174 Ry
:2PP001: 2P*                -50.777943378 Ry
:2P 001: 2P                 -49.859278125 Ry
:3S 001: 3S                  -5.660701520 Ry

        2.ATOM      Fe2                   5 CORE STATES
:1S 002: 1S                -513.194309657 Ry
:2S 002: 2S                 -59.180905734 Ry
:2PP002: 2P*                -50.867648343 Ry
:2P 002: 2P                 -49.951547879 Ry
:3S 002: 3S                  -5.929208816 Ry

        3.ATOM      Rh1                  10 CORE STATES
:1S 003: 1S               -1691.497888047 Ry
:2S 003: 2S                -244.393683891 Ry
:2PP003: 2P*               -226.203360783 Ry
:2P 003: 2P                -215.574141370 Ry
:3S 003: 3S                 -42.921475868 Ry
:3PP003: 3P*                -35.803530823 Ry
:3P 003: 3P                 -33.974698795 Ry
:3DD003: 3D*                -21.377901137 Ry
:3D 003: 3D                 -21.017190239 Ry
:4S 003: 4S                  -5.128389768 Ry
:CINT001 Core Integral Atom   1 Up    5.999662 Dn   5.999613 Total  11.999275
:CINT002 Core Integral Atom   2 Up    5.999614 Dn   5.999662 Total  11.999276
:CINT003 Core Integral Atom   3 Up   14.998731 Dn  14.998731 Total  29.997461

       DENSITY AT NUCLEUS
        JATOM        VALENCE       SEMI-CORE          CORE           TOTAL
:RTO001:   1        6.979773        0.000000    15302.818479    15309.798252
:RTO002:   2        6.991102        0.000000    15302.828628    15309.819730
:RTO003:   3       22.952504        0.000000   155315.129782   155338.082286

       HYPERFINE FIELDS FOR THOMSON RADIUS
:HFF001:          227.675           0.000        -388.223        -160.548 (KGAUSS)
:HFF002:         -229.262           0.000         390.125         160.864 (KGAUSS)
:HFF003:           -0.013           0.000           1.516           1.503 (KGAUSS)
     
       CHARGES OF NEW CHARGE DENSITY
:NTO   : INTERSTITIAL     UP =     2.243085 DN =     2.243586 TOT =     4.486671
:NPC   : PW Pseudocharge  UP =     5.378764 DN =     5.377860 TOT =    10.756624
:NTO001: CHARGE SPHERE  1 UP =    14.136040 DN =    10.962613 TOT =    25.098653
:NTO002: CHARGE SPHERE  2 UP =    10.974501 DN =    14.141558 TOT =    25.116060
:NTO003: CHARGE SPHERE  3 UP =    21.821508 DN =    21.824505 TOT =    43.646013

:NEC01: NUCLEAR AND ELECTRONIC CHARGE    142.00000   141.99341
     
       CHARGES OF OLD CHARGE DENSITY
:OTO   : INTERSTITIAL     UP =     2.242079 DN =     2.250503 TOT =     4.492582
:OPC   : PW Pseudocharge  UP =     5.394540 DN =     5.399185 TOT =    10.793726
:OTO001: CHARGE SPHERE  1 UP =    14.139032 DN =    10.963939 TOT =    25.102971
:OTO002: CHARGE SPHERE  2 UP =    10.952712 DN =    14.147919 TOT =    25.100631
:OTO003: CHARGE SPHERE  3 UP =    21.822152 DN =    21.829756 TOT =    43.651908

:NEC02: NUCLEAR AND ELECTRONIC CHARGE    142.00000   142.00000
     
       CONVERGENCE TEST
:DTO001: DIFFERENCE SPHERE  1 UP =  0.0045511 DN =  0.0008487 TOT =  0.0053998
:DTO002: DIFFERENCE SPHERE  2 UP =  0.0229899 DN =  0.0064223 TOT =  0.0294122
:DTO003: DIFFERENCE SPHERE  3 UP =  0.0017670 DN =  0.0033454 TOT =  0.0051124

:DIS  :  CHARGE DISTANCE       ( 0.0229899 for atom    2 spin 1)      0.0225183
 PW Mixed is           49
 
******************************************************
* MULTISECANT MIXING VER9 RELEASE 10.4.0              *
* Standard Mode with controls                        *
* Fixed density scale                                *
* Regularization       1.000E-04                     *
* Trust Upper Limit    5.000E+00                     *
* Max Number of Memory Steps    8                    *
******************************************************
 
:PWTMP   1.1765E+02  4.5917E+02  3.5807E+02
:PLANE:  PW TOTAL      2.3804 DISTAN   7.57E-03  3.18E-01 %
:CHARG:  CLM/ATOM    212.0478 DISTAN   8.61E-03  4.06E-03 %
 
Step History
        DMIX         DMIXT        Red     Pred      Trust     Lambda    MagRel    MagAbs     Beta
  7   2.8489E-02   2.8489E-02  9.63E-01  9.73E-01  5.64E-01  3.91E-01  1.58E-02  1.64E-02  7.90E-01
  8   7.1222E-02   5.7118E-02  8.01E-01  8.40E-01  4.43E-01  3.91E-01  4.43E-01  4.42E-01  9.87E-01
  9   1.7806E-01   1.7627E-01  3.48E-01  4.65E-01  1.12E+00  1.76E-01  1.12E+00  8.95E-01  1.00E+00
 10   7.4231E-02   7.4231E-02  8.67E-01  8.13E-01  2.02E+00  4.24E-01  2.89E-01  8.02E-02  9.12E-01
 11   1.8558E-01   1.8558E-01  9.19E-01  7.64E-01  2.33E+00  9.84E-01  9.11E-01  2.19E-01  7.29E-01
 12   2.5526E-01   2.5526E-01  4.69E-01  3.72E-01  2.54E+00  1.04E+00  5.44E-01  1.20E-01  9.12E-01
 13   3.1907E-01   3.1907E-01  6.91E-01  3.24E-01  3.38E+00  1.28E+00  6.11E-01  6.33E-02  1.00E+00
 14   2.0372E-01   2.0372E-01  5.79E-01  2.85E-01  4.51E+00  8.95E-01  1.91E-01  1.37E-02  1.00E+00
 15   3.1003E-01   3.1003E-01 -1.00E+00  2.24E-01  6.01E+00  1.00E+00  4.24E-01  1.76E-02  1.00E+00
:JACOBIANS    5.692E-01   2.344E+00
  
:NORMS:  1/Froebius, Min, Max, Used   0.1076E+01  0.6450E+00  0.1614E+01  0.1272E+01
:INFO :  Number of Memory Steps    8 Skipping    6
:INFO :  SLambda=    0.7355200503  Max    0.7355200503
:PREDicted Charge, CTotal, PW Trust    9.197E-04   1.186E-03   1.629E-02
:PREDicted DMix, Beta, BLim   5.9166E-01  1.5047E+00  1.7340E+00

Eigenvalues, unscaled except for SY+YY
   #     SY Real        SY Imag          SS             YY         SY+YY Real      SY+YY Imag
   1   4.463684E+00   0.000000E+00   6.658220E+00   4.115340E+00   7.027125E+00   0.000000E+00
   2   1.853739E+00   0.000000E+00   2.036429E+00   1.953396E+00   3.291265E+00   0.000000E+00
   3   4.435901E-01   0.000000E+00   4.385907E-01   1.409787E+00   2.066690E+00   0.000000E+00
   4   3.009399E-01   0.000000E+00   1.209982E-01   4.521685E-01   7.309848E-01   0.000000E+00
   5   1.894037E-02   0.000000E+00   4.494529E-03   5.920604E-02   8.088694E-02   0.000000E+00
   6   1.145814E-03   0.000000E+00   1.986860E-04   7.163471E-03   8.997073E-03   0.000000E+00
   7   3.962738E-04   0.000000E+00   7.459775E-05   2.376140E-03   2.739806E-03   0.000000E+00
   8   1.644980E-04   0.000000E+00   3.379553E-05   5.617280E-04   7.058763E-04   0.000000E+00
 
:INFO :  Singular value  7.072E+00 Weight  1.000E+00 Projection -6.202E-03
:INFO :  Singular value  3.290E+00 Weight  1.000E+00 Projection -6.909E-03
:INFO :  Singular value  2.057E+00 Weight  1.000E+00 Projection  4.023E-04
:INFO :  Singular value  7.305E-01 Weight  1.000E+00 Projection -8.079E-03
:INFO :  Singular value  8.120E-02 Weight  1.000E+00 Projection  8.120E-02
:INFO :  Singular value  8.972E-03 Weight  9.979E-01 Projection -4.324E-02
:INFO :  Singular value  2.738E-03 Weight  9.779E-01 Projection -7.652E-02
:INFO :  Singular value  7.052E-04 Weight  7.459E-01 Projection  3.799E-03
:RANK :  ACTIVE   7.72/8  =  96.52 % ; YY RANK   7.62/8  =  95.23 %
 
:BLIM :  VZERO Control Off
:TRUST:  Step 7.55E+00  Charge 5.68E-02 (e) CTO  1.36E-01 (e) PW  1.60E-01 (e)
:DIRM :  MEMORY  8/8  SCALE   1.000 RED  0.63 PRED  0.22 NEXT  0.16 
:TRAVE:  Charge 3.86E-03 (e) CTO  6.18E-03 (e) PW  1.14E-02 (e)
:DIRP :  |MSR1|= 3.508E-03 |PRATT|= 3.786E-03 ANGLE=  15.3 DEGREES
:DIRQ :  |MSR1|= 1.264E-02 |PRATT|= 2.583E-02 ANGLE=  31.1 DEGREES
:DIRT :  |MSR1|= 1.312E-02 |PRATT|= 2.611E-02 ANGLE=  31.3 DEGREES
:MIX  :   MSE1   REGULARIZATION:  4.12E-04 GREED: 0.35000  Newton 1.00  0.5026                
     
       CHARGES OF MIXED CHARGE DENSITY
:CTO   : INTERSTITIAL     UP =     2.245075 DN =     2.249060 TOT =     4.494135
:CPC   : PW Pseudocharge  UP =     5.383154 DN =     5.387721 TOT =    10.770874
:CTO001: CHARGE SPHERE  1 UP =    14.136401 DN =    10.966790 TOT =    25.103191
:CTO002: CHARGE SPHERE  2 UP =    10.959886 DN =    14.142050 TOT =    25.101936
:CTO003: CHARGE SPHERE  3 UP =    21.822385 DN =    21.827984 TOT =    43.650369

       SPIN MAGNETIC MOMENTS OF MIXED CHARGE DENSITY
:MMINT:  MAGNETIC MOMENT IN INTERSTITIAL  =   -0.00398
:MMI001: MAGNETIC MOMENT IN SPHERE   1    =    3.16961
:MMI002: MAGNETIC MOMENT IN SPHERE   2    =   -3.18216
:MMI003: MAGNETIC MOMENT IN SPHERE   3    =   -0.00560
:MMTOT:  SPIN MAGNETIC MOMENT IN CELL     =   -0.02774

:NEC03: NUCLEAR AND ELECTRONIC CHARGE    142.00000   142.00000

PW CHANGE     H    K    L      Current       Change    Residue
:PUP001:      0    0    0  2.13037143E-02 -2.343E-05 -9.982E-06
:PUP002:     -1   -1   -1  2.97018524E-03 -4.228E-05 -7.514E-05
:PUP003:      0    0   -2 -6.98405712E-03  6.814E-05  8.471E-05
:PUP004:      0   -2   -2 -1.48515543E-04 -2.178E-04 -2.225E-04
:PUP005:     -1   -1   -3  1.60067763E-03 -3.717E-05 -1.432E-05
:PUP006:     -2   -2   -2  2.92749354E-03  2.238E-05  1.257E-05
:PUP007:      0    0   -4 -6.25944502E-03 -2.962E-05 -3.631E-05
:PUP008:     -1   -3   -3 -4.23503903E-03  1.043E-05  2.274E-05
:PUP009:      0   -2   -4  6.35080698E-03  8.921E-06 -4.130E-06
:PUP010:     -2   -2   -4 -9.46373464E-03  3.610E-06 -1.631E-05
:PUP011:     -3   -3   -3 -4.26260331E-04  2.674E-06  3.285E-06
:PUP012:     -1   -1   -5 -3.84031607E-04 -1.842E-06  3.593E-06
  
:PDN001:      0    0    0  2.13275959E-02 -3.605E-05 -4.761E-05
:PDN002:     -1   -1   -1 -2.96493928E-03  2.908E-05  2.199E-05
:PDN003:      0    0   -2 -6.99534139E-03  2.840E-05  3.662E-05
:PDN004:      0   -2   -2 -1.94560326E-04 -9.511E-05 -6.915E-05
:PDN005:     -1   -1   -3 -1.62812456E-03  5.432E-05  7.024E-05
:PDN006:     -2   -2   -2  2.93346778E-03 -5.728E-06 -9.942E-06
:PDN007:      0    0   -4 -6.27000426E-03 -1.636E-06  6.118E-06
:PDN008:     -1   -3   -3  4.23040377E-03 -1.387E-05 -1.469E-05
:PDN009:      0   -2   -4  6.36128464E-03 -1.148E-05 -1.554E-05
:PDN010:     -2   -2   -4 -9.46191955E-03  9.352E-06 -5.548E-06
:PDN011:     -3   -3   -3  4.26768484E-04 -4.232E-06 -5.350E-06
:PDN012:     -1   -1   -5  3.82535206E-04  5.402E-06  9.021E-06

:ENE  : ********** TOTAL ENERGY IN Ry =       -24232.23906230

