
:LABEL1: Calculations in /home/cmueller/wien/FZU/src/trial/Mn2Sb/FMAG
:LABEL2: on cv036 at Thu Apr 11 07:44:38 PM CEST 2024
:LABEL3: using WIEN2k_19.1 (Release 25/6/2019) in /home/cmueller/WIENROOT
:LABEL4: using the command: runsp_lapw
 Flat Integration
 New Mode for Coulomb Integral
 Consistent 3/8+Simpson combinations
 Extension of core to zero
 LDM version in phi
 Fifth-order quadrature in outwin


            ---------
:ITE001:  1. ITERATION
            ---------

:NATO :    6 INDEPENDENT AND    6 TOTAL ATOMS IN UNITCELL
       SUBSTANCE: Mn2Sb (according to Wijngaard et al. '92)                   

       LATTICE                      = P   
:POT  : POTENTIAL OPTION EX_PBE EC_PBE VX_PBE VC_PBE
:LAT  : LATTICE CONSTANTS=  7.71000  7.71000 12.40000    1.571    1.571    1.571
:VOL  : UNIT CELL VOLUME =     737.10684
       MODE OF CALCULATION IS       = RELA
       SPINPOLARIZED CALCULATION
:IFFT  : FFT-parameters:   60   60   96 Factor: 2.00


   CONVERGENCE PARAMETER FOR PSEUDOCHARGE: NCON=  9
   MAXIMAL VALUE OF RMT(JATOM)*ABSK(NKK) : RK  =29.99674


:VKCOUL :  VK-COUL convergence: 0.371E-07
       ATOMNUMBER=  1 Mn1        VCOUL-ZERO =  0.45847E+00
:EFG001:                        EFG         =    -0.00031   *10**21  V / m**2
                               V20  TOT/SRF=    -0.00027     0.00855
                               V22  TOT/SRF=     0.00000     0.00000
                               V22M TOT/SRF=     0.00000     0.00000
                               V21  TOT/SRF=     0.00000     0.00000
                               V21M TOT/SRF=     0.00000     0.00000

              0.00016    0.00000    0.00000        0.00016    0.00000    0.00000
              0.00000    0.00016    0.00000        0.00000    0.00016    0.00000
              0.00000    0.00000   -0.00031        0.00000    0.00000   -0.00031

         MAIN DIRECTIONS OF THE EFG   1.0000  0.0000  0.0000
                                      0.0000  1.0000  0.0000
                                      0.0000  0.0000  1.0000
:ANG001:  ANGLE WITH OLD X-AXIS =         0.0

:ETA001:                         ASYMM. ETA =     0.00000


       ATOMNUMBER=  2 Mn2        VCOUL-ZERO =  0.45847E+00
:EFG002:                        EFG         =    -0.00031   *10**21  V / m**2
                               V20  TOT/SRF=    -0.00027     0.00855
                               V22  TOT/SRF=     0.00000     0.00000
                               V22M TOT/SRF=     0.00000     0.00000
                               V21  TOT/SRF=     0.00000     0.00000
                               V21M TOT/SRF=     0.00000     0.00000

              0.00016    0.00000    0.00000        0.00016    0.00000    0.00000
              0.00000    0.00016    0.00000        0.00000    0.00016    0.00000
              0.00000    0.00000   -0.00031        0.00000    0.00000   -0.00031

         MAIN DIRECTIONS OF THE EFG   1.0000  0.0000  0.0000
                                      0.0000  1.0000  0.0000
                                      0.0000  0.0000  1.0000
:ANG002:  ANGLE WITH OLD X-AXIS =         0.0

:ETA002:                         ASYMM. ETA =     0.00000


       ATOMNUMBER=  3 Sb1        VCOUL-ZERO =  0.40660E+00
:EFG003:                        EFG         =     0.01434   *10**21  V / m**2
                               V20  TOT/SRF=     0.01242     0.02005
                               V22  TOT/SRF=     0.00000     0.00000
                               V22M TOT/SRF=     0.00000     0.00000
                               V21  TOT/SRF=     0.00000     0.00000
                               V21M TOT/SRF=     0.00000     0.00000

             -0.00717    0.00000    0.00000       -0.00717    0.00000    0.00000
              0.00000   -0.00717    0.00000        0.00000   -0.00717    0.00000
              0.00000    0.00000    0.01434        0.00000    0.00000    0.01434

         MAIN DIRECTIONS OF THE EFG   1.0000  0.0000  0.0000
                                      0.0000  1.0000  0.0000
                                      0.0000  0.0000  1.0000
:ANG003:  ANGLE WITH OLD X-AXIS =         0.0

:ETA003:                         ASYMM. ETA =     0.00000


       ATOMNUMBER=  4 Sb2        VCOUL-ZERO =  0.40660E+00
:EFG004:                        EFG         =     0.01434   *10**21  V / m**2
                               V20  TOT/SRF=     0.01242     0.02005
                               V22  TOT/SRF=     0.00000     0.00000
                               V22M TOT/SRF=     0.00000     0.00000
                               V21  TOT/SRF=     0.00000     0.00000
                               V21M TOT/SRF=     0.00000     0.00000

             -0.00717    0.00000    0.00000       -0.00717    0.00000    0.00000
              0.00000   -0.00717    0.00000        0.00000   -0.00717    0.00000
              0.00000    0.00000    0.01434        0.00000    0.00000    0.01434

         MAIN DIRECTIONS OF THE EFG   1.0000  0.0000  0.0000
                                      0.0000  1.0000  0.0000
                                      0.0000  0.0000  1.0000
:ANG004:  ANGLE WITH OLD X-AXIS =         0.0

:ETA004:                         ASYMM. ETA =     0.00000


       ATOMNUMBER=  5 Mn3        VCOUL-ZERO =  0.53145E+00
:EFG005:                        EFG         =     0.01542   *10**21  V / m**2
                               V20  TOT/SRF=     0.01336     0.01700
                               V22  TOT/SRF=     0.00000    -0.00000
                               V22M TOT/SRF=     0.00000     0.00000
                               V21  TOT/SRF=     0.00000     0.00000
                               V21M TOT/SRF=     0.00000     0.00000

             -0.00771    0.00000    0.00000       -0.00771    0.00000    0.00000
              0.00000   -0.00771    0.00000        0.00000   -0.00771    0.00000
              0.00000    0.00000    0.01542        0.00000    0.00000    0.01542

         MAIN DIRECTIONS OF THE EFG   1.0000  0.0000  0.0000
                                      0.0000  1.0000  0.0000
                                      0.0000  0.0000  1.0000
:ANG005:  ANGLE WITH OLD X-AXIS =         0.0

:ETA005:                         ASYMM. ETA =     0.00000


       ATOMNUMBER=  6 Mn4        VCOUL-ZERO =  0.53145E+00
:EFG006:                        EFG         =     0.01542   *10**21  V / m**2
                               V20  TOT/SRF=     0.01336     0.01700
                               V22  TOT/SRF=     0.00000    -0.00000
                               V22M TOT/SRF=     0.00000     0.00000
                               V21  TOT/SRF=     0.00000     0.00000
                               V21M TOT/SRF=     0.00000     0.00000

             -0.00771    0.00000    0.00000       -0.00771    0.00000    0.00000
              0.00000   -0.00771    0.00000        0.00000   -0.00771    0.00000
              0.00000    0.00000    0.01542        0.00000    0.00000    0.01542

         MAIN DIRECTIONS OF THE EFG   1.0000  0.0000  0.0000
                                      0.0000  1.0000  0.0000
                                      0.0000  0.0000  1.0000
:ANG006:  ANGLE WITH OLD X-AXIS =         0.0

:ETA006:                         ASYMM. ETA =     0.00000


     HELLMANN-FEYNMAN-FORCE IN mRy/a.u. = |F|  Fx       Fy             Fz
:FHF001:   1.ATOM      0.000000000113      0.000000000000      0.000000000000      0.000000000113

     HELLMANN-FEYNMAN-FORCE IN mRy/a.u. = |F|  Fx       Fy             Fz
:FHF002:   2.ATOM      0.000000000251      0.000000000000      0.000000000000      0.000000000251

     HELLMANN-FEYNMAN-FORCE IN mRy/a.u. = |F|  Fx       Fy             Fz
:FHF003:   3.ATOM    925.173401190921      0.000000000000      0.000000000000    925.173401190921

     HELLMANN-FEYNMAN-FORCE IN mRy/a.u. = |F|  Fx       Fy             Fz
:FHF004:   4.ATOM    925.173401196583      0.000000000000      0.000000000000   -925.173401196583

     HELLMANN-FEYNMAN-FORCE IN mRy/a.u. = |F|  Fx       Fy             Fz
:FHF005:   5.ATOM    393.194970185270      0.000000000000      0.000000000000   -393.194970185270

     HELLMANN-FEYNMAN-FORCE IN mRy/a.u. = |F|  Fx       Fy             Fz
:FHF006:   6.ATOM    393.194970185809      0.000000000000      0.000000000000    393.194970185809

:FIT001: LUSE= 13 SIGMA OF V-XC FIT FOR ATOM  1  0.3101124E-02
:FIT001: LUSE= 13 SIGMA OF V-XC FIT FOR ATOM  1  0.5238738E-02
:FIT002: LUSE= 13 SIGMA OF V-XC FIT FOR ATOM  2  0.3101124E-02
:FIT002: LUSE= 13 SIGMA OF V-XC FIT FOR ATOM  2  0.5238738E-02
:FIT003: LUSE= 13 SIGMA OF V-XC FIT FOR ATOM  3  0.7819723E-03
:FIT003: LUSE= 13 SIGMA OF V-XC FIT FOR ATOM  3  0.8449822E-03
:FIT004: LUSE= 13 SIGMA OF V-XC FIT FOR ATOM  4  0.7819723E-03
:FIT004: LUSE= 13 SIGMA OF V-XC FIT FOR ATOM  4  0.8449822E-03
:FIT005: LUSE= 13 SIGMA OF V-XC FIT FOR ATOM  5  0.3016855E-02
:FIT005: LUSE= 13 SIGMA OF V-XC FIT FOR ATOM  5  0.3895508E-02
:FIT006: LUSE= 13 SIGMA OF V-XC FIT FOR ATOM  6  0.3016855E-02
:FIT006: LUSE= 13 SIGMA OF V-XC FIT FOR ATOM  6  0.3895508E-02
:DEN  : DENSITY INTEGRAL  =        -14132.18160760   (Ry)
       ELS_POTENTIAL_AT Z=0 and Z=0.5:  -0.39578   0.76670
       ELS_POTENTIAL_AT Y=0 and Y=0.5:  -0.52094  -0.52094
:VZERO:v0,v0c,v0x  -1.24873  -0.39578  -0.85295 v5,v5c,v5x   0.18781   0.76670  -0.57889
:VZERY:v0,v0c,v0x  -1.35964  -0.52094  -0.83870 v5,v5c,v5x  -1.35964  -0.52094  -0.83870
:VZERX:v0,v0c,v0x  -1.35964  -0.52094  -0.83870 v5,v5c,v5x  -1.35964  -0.52094  -0.83870
:LMAX-WF:   10   Non-Spherical LMAX:   4

          ATOMIC SPHERE DEPENDENT PARAMETERS FOR ATOM  Mn1       
:e__0001: OVERALL ENERGY PARAMETER IS    0.3000
          OVERALL BASIS SET ON ATOM IS LAPW
:E1_0001: E( 1)=    0.3000
             APW+lo
:E1_0001: E( 1)=   -3.1582   E(BOTTOM)=   -3.193   E(TOP)=   -3.124  1  2   161
             LOCAL ORBITAL
:E2_0001: E( 2)=    0.3084   E(BOTTOM)=    0.082   E(TOP)=    0.535  0  1   119
             APW+lo
:E0_0001: E( 0)=    0.3000
             APW+lo

          ATOMIC SPHERE DEPENDENT PARAMETERS FOR ATOM  Mn2       
:e__0002: OVERALL ENERGY PARAMETER IS    0.3000
          OVERALL BASIS SET ON ATOM IS LAPW
:E1_0002: E( 1)=    0.3000
             APW+lo
:E1_0002: E( 1)=   -3.1582   E(BOTTOM)=   -3.193   E(TOP)=   -3.124  1  2   161
             LOCAL ORBITAL
:E2_0002: E( 2)=    0.3084   E(BOTTOM)=    0.082   E(TOP)=    0.535  0  1   119
             APW+lo
:E0_0002: E( 0)=    0.3000
             APW+lo

          ATOMIC SPHERE DEPENDENT PARAMETERS FOR ATOM  Sb1       
:e__0003: OVERALL ENERGY PARAMETER IS    0.3000
          OVERALL BASIS SET ON ATOM IS LAPW
:E2_0003: E( 2)=    0.3000
             APW+lo
:E2_0003: E( 2)=   -1.4749   E(BOTTOM)=   -1.561   E(TOP)=   -1.388  1  2   163
             LOCAL ORBITAL
:E0_0003: E( 0)=    0.7000
             APW+lo
:E0_0003: E( 0)=   -0.6300   E(BOTTOM)=   -0.791   E(TOP)= -200.000  4 -1   141
             LOCAL ORBITAL
:E1_0003: E( 1)=    0.3000
             APW+lo

          ATOMIC SPHERE DEPENDENT PARAMETERS FOR ATOM  Sb2       
:e__0004: OVERALL ENERGY PARAMETER IS    0.3000
          OVERALL BASIS SET ON ATOM IS LAPW
:E2_0004: E( 2)=    0.3000
             APW+lo
:E2_0004: E( 2)=   -1.4749   E(BOTTOM)=   -1.561   E(TOP)=   -1.388  1  2   163
             LOCAL ORBITAL
:E0_0004: E( 0)=    0.7000
             APW+lo
:E0_0004: E( 0)=   -0.6300   E(BOTTOM)=   -0.791   E(TOP)= -200.000  4 -1   141
             LOCAL ORBITAL
:E1_0004: E( 1)=    0.3000
             APW+lo

          ATOMIC SPHERE DEPENDENT PARAMETERS FOR ATOM  Mn3       
:e__0005: OVERALL ENERGY PARAMETER IS    0.3000
          OVERALL BASIS SET ON ATOM IS LAPW
:E1_0005: E( 1)=    0.3000
             APW+lo
:E1_0005: E( 1)=   -3.1286   E(BOTTOM)=   -3.162   E(TOP)=   -3.095  1  2   165
             LOCAL ORBITAL
:E2_0005: E( 2)=    0.3459   E(BOTTOM)=    0.126   E(TOP)=    0.566  0  1   119
             APW+lo
:E0_0005: E( 0)=    0.3000
             APW+lo

          ATOMIC SPHERE DEPENDENT PARAMETERS FOR ATOM  Mn4       
:e__0006: OVERALL ENERGY PARAMETER IS    0.3000
          OVERALL BASIS SET ON ATOM IS LAPW
:E1_0006: E( 1)=    0.3000
             APW+lo
:E1_0006: E( 1)=   -3.1286   E(BOTTOM)=   -3.162   E(TOP)=   -3.095  1  2   165
             LOCAL ORBITAL
:E2_0006: E( 2)=    0.3459   E(BOTTOM)=    0.126   E(TOP)=    0.566  0  1   119
             APW+lo
:E0_0006: E( 0)=    0.3000
             APW+lo

       K=   0.03571   0.03571   0.05556            1
:RKM  : MATRIX SIZE   367LOs:  78  RKM= 6.99  WEIGHT= 8.00  PGR:    
       EIGENVALUES ARE:
:EIG00001:      -3.1536759   -3.1535872   -3.1519871   -3.1504273   -3.1481789
:EIG00006:      -3.1481034   -3.1221985   -3.1216557   -3.1209178   -3.1209107
:EIG00011:      -3.1208995   -3.1208782   -1.4567547   -1.4564242   -1.4557173
:EIG00016:      -1.4556759   -1.4554531   -1.4553901   -1.4552417   -1.4549304
:EIG00021:      -1.4548573   -1.4541503   -0.2742000   -0.1455539    0.1127537
:EIG00026:       0.1952177    0.2198242    0.2220276    0.2386339    0.2711735
:EIG00031:       0.3031522    0.3202507    0.3207232    0.3408678    0.3485044
:EIG00036:       0.3575625    0.3622410    0.3753059    0.3780105    0.3934021
:EIG00041:       0.3952000    0.4106330    0.4107464    0.4155492    0.4282617
:EIG00046:       0.4469797    0.4539307    0.6008964    0.6596322    0.6851189
 
:EIG00051:       0.7318648    0.7824339    0.8770316    0.9228561    0.9277764
:EIG00056:       0.9667393    1.0015444    1.1351530    1.1386039    1.1634098
:EIG00061:       1.1810854    1.3189680    1.3506779    1.3662466    1.4640736
:EIG00066:       1.5050645    1.5175048    1.5355424    1.5906823    1.5924497
:EIG00071:       1.6255312    1.6429859    1.6543175    1.6638377    1.7108279
:EIG00076:       1.8052950    1.8332864    1.8513979    1.9938874
       ********************************************************

:KPT   :      NUMBER OF K-POINTS:   245
:LMAX-WF:   10   Non-Spherical LMAX:   4

          ATOMIC SPHERE DEPENDENT PARAMETERS FOR ATOM  Mn1       
:e__0001: OVERALL ENERGY PARAMETER IS    0.3000
          OVERALL BASIS SET ON ATOM IS LAPW
:E1_0001: E( 1)=    0.3000
             APW+lo
:E1_0001: E( 1)=   -2.7923   E(BOTTOM)=   -2.831   E(TOP)=   -2.754  1  2   197
             LOCAL ORBITAL
:E2_0001: E( 2)=    0.6373   E(BOTTOM)=    0.373   E(TOP)=    0.902  0  1   128
             APW+lo
:E0_0001: E( 0)=    0.3000
             APW+lo

          ATOMIC SPHERE DEPENDENT PARAMETERS FOR ATOM  Mn2       
:e__0002: OVERALL ENERGY PARAMETER IS    0.3000
          OVERALL BASIS SET ON ATOM IS LAPW
:E1_0002: E( 1)=    0.3000
             APW+lo
:E1_0002: E( 1)=   -2.7923   E(BOTTOM)=   -2.831   E(TOP)=   -2.754  1  2   197
             LOCAL ORBITAL
:E2_0002: E( 2)=    0.6373   E(BOTTOM)=    0.373   E(TOP)=    0.902  0  1   128
             APW+lo
:E0_0002: E( 0)=    0.3000
             APW+lo

          ATOMIC SPHERE DEPENDENT PARAMETERS FOR ATOM  Sb1       
:e__0003: OVERALL ENERGY PARAMETER IS    0.3000
          OVERALL BASIS SET ON ATOM IS LAPW
:E2_0003: E( 2)=    0.3000
             APW+lo
:E2_0003: E( 2)=   -1.4756   E(BOTTOM)=   -1.562   E(TOP)=   -1.389  1  2   164
             LOCAL ORBITAL
:E0_0003: E( 0)=    0.7000
             APW+lo
:E0_0003: E( 0)=   -0.6300   E(BOTTOM)=   -0.795   E(TOP)= -200.000  4 -1   138
             LOCAL ORBITAL
:E1_0003: E( 1)=    0.3000
             APW+lo

          ATOMIC SPHERE DEPENDENT PARAMETERS FOR ATOM  Sb2       
:e__0004: OVERALL ENERGY PARAMETER IS    0.3000
          OVERALL BASIS SET ON ATOM IS LAPW
:E2_0004: E( 2)=    0.3000
             APW+lo
:E2_0004: E( 2)=   -1.4756   E(BOTTOM)=   -1.562   E(TOP)=   -1.389  1  2   164
             LOCAL ORBITAL
:E0_0004: E( 0)=    0.7000
             APW+lo
:E0_0004: E( 0)=   -0.6300   E(BOTTOM)=   -0.795   E(TOP)= -200.000  4 -1   138
             LOCAL ORBITAL
:E1_0004: E( 1)=    0.3000
             APW+lo

          ATOMIC SPHERE DEPENDENT PARAMETERS FOR ATOM  Mn3       
:e__0005: OVERALL ENERGY PARAMETER IS    0.3000
          OVERALL BASIS SET ON ATOM IS LAPW
:E1_0005: E( 1)=    0.3000
             APW+lo
:E1_0005: E( 1)=   -2.7615   E(BOTTOM)=   -2.799   E(TOP)=   -2.724  1  2   203
             LOCAL ORBITAL
:E2_0005: E( 2)=    0.6785   E(BOTTOM)=    0.424   E(TOP)=    0.933  0  1   139
             APW+lo
:E0_0005: E( 0)=    0.3000
             APW+lo

          ATOMIC SPHERE DEPENDENT PARAMETERS FOR ATOM  Mn4       
:e__0006: OVERALL ENERGY PARAMETER IS    0.3000
          OVERALL BASIS SET ON ATOM IS LAPW
:E1_0006: E( 1)=    0.3000
             APW+lo
:E1_0006: E( 1)=   -2.7615   E(BOTTOM)=   -2.799   E(TOP)=   -2.724  1  2   203
             LOCAL ORBITAL
:E2_0006: E( 2)=    0.6785   E(BOTTOM)=    0.424   E(TOP)=    0.933  0  1   139
             APW+lo
:E0_0006: E( 0)=    0.3000
             APW+lo

       K=   0.03571   0.03571   0.05556            1
:RKM  : MATRIX SIZE   367LOs:  78  RKM= 6.99  WEIGHT= 8.00  PGR:    
       EIGENVALUES ARE:
:EIG00001:      -2.7876318   -2.7875219   -2.7856179   -2.7835452   -2.7808862
:EIG00006:      -2.7807886   -2.7544785   -2.7537360   -2.7530294   -2.7530258
:EIG00011:      -2.7530042   -2.7529805   -1.4573216   -1.4569740   -1.4562423
:EIG00016:      -1.4562030   -1.4559797   -1.4559148   -1.4557964   -1.4554985
:EIG00021:      -1.4554433   -1.4547299   -0.2421507   -0.1224561    0.1807518
:EIG00026:       0.3785204    0.4146420    0.4185382    0.4343436    0.4466257
:EIG00031:       0.5090591    0.5118879    0.5192550    0.5482226    0.6024008
:EIG00036:       0.6048834    0.6056334    0.6786464    0.6878446    0.7002046
:EIG00041:       0.7019711    0.7083910    0.7224369    0.7283170    0.7379425
:EIG00046:       0.7510323    0.7814709    0.7831680    0.7883128    0.8352677
 
:EIG00051:       0.8461590    0.9549956    1.0403751    1.0444717    1.0660809
:EIG00056:       1.1000900    1.1303817    1.1985956    1.2411180    1.2645714
:EIG00061:       1.3002365    1.3911240    1.4184492    1.4200613    1.5474529
:EIG00066:       1.5648827    1.5897634    1.5915188    1.6623983    1.6641130
:EIG00071:       1.6970403    1.7144790    1.7347950    1.7564916    1.7780583
:EIG00076:       1.8782755    1.9351972    1.9457869
       ********************************************************

:KPT   :      NUMBER OF K-POINTS:   245
:GAP (global)   :    0.0    Ry =     0.0   eV (metal)
:GAP (this spin):    0.0    Ry =     0.0   eV (metal)
         Bandranges (emin - emax) and occupancy:
:BAN00040:  40    0.354895    0.393402  1.00000000
:BAN00041:  41    0.378196    0.402240  1.00000000
:BAN00042:  42    0.380647    0.411203  1.00000000
:BAN00043:  43    0.401485    0.420473  1.00000000
:BAN00044:  44    0.407020    0.430687  1.00000000
:BAN00045:  45    0.412595    0.468704  1.00000000
:BAN00046:  46    0.415344    0.522288  1.00000000
:BAN00047:  47    0.441867    0.630883  0.95363053
:BAN00048:  48    0.449759    0.653406  0.78343798
:BAN00049:  49    0.460939    0.704092  0.37369265
:BAN00050:  50    0.465295    0.734206  0.20227058
:BAN00051:  51    0.626456    0.853472  0.00000000
:BAN00052:  52    0.632708    0.892304  0.00000000
:BAN00053:  53    0.799035    0.925892  0.00000000
:BAN00054:  54    0.805219    0.978066  0.00000000
:BAN00055:  55    0.870825    1.181839  0.00000000
        Energy to separate low and high energystates:    0.03561


:NOE  : NUMBER OF ELECTRONS          =   82.000

:FER  : F E R M I - ENERGY(TETRAH.M.)=   0.5670071214
:GMA  : POTENTIAL AND CHARGE CUT-OFF  12.00 Ry**.5

:POS001: ATOM   -1 X,Y,Z = 0.00000 0.00000 0.00000  MULT= 1  ZZ= 25.000  Mn1       

       LMMAX 16
       LM=   0 0  1 0  2 0  2 2  3 0  3 2  4 0  4 2  4 4  5 0  5 2  5 4  6 0  6 2  6 4  6 6

:CHA001: TOTAL VALENCE CHARGE INSIDE SPHERE   1 =   7.9235    (RMT=  2.5000 )
:PCS001: PARTIAL CHARGES SPHERE =  1 S,P,D,F,PX,PY,PZ,D-Z2,D-X2Y2,D-XY,D-XZ,D-YZ 
:QTL001: 0.2163 3.2433 4.4468 0.0137 1.0801 1.0801 1.0831 0.9043 0.8984 0.8956 0.8742 0.8742
        Q-s-low E-s-low   Q-p-low E-p-low   Q-d-low E-d-low   Q-f-low E-f-low
:EPL001:  0.0524 -0.2042    3.0273 -3.1175    0.0317 -0.1909    0.0014 -0.6063
        Q-s-hi  E-s-hi    Q-p-hi  E-p-hi    Q-d-hi  E-d-hi    Q-f-hi  E-f-hi 
:EPH001:  0.1639  0.2231    0.2160  0.3217    4.4151  0.3316    0.0123  0.3499

                      VXX         VYY         VZZ       UP TO R
:VZZ001:            -0.09761    -0.09761     0.19522       2.500

:POS002: ATOM   -2 X,Y,Z = 0.50000 0.50000 0.00000  MULT= 1  ZZ= 25.000  Mn2       

       LMMAX 16
       LM=   0 0  1 0  2 0  2 2  3 0  3 2  4 0  4 2  4 4  5 0  5 2  5 4  6 0  6 2  6 4  6 6

:CHA002: TOTAL VALENCE CHARGE INSIDE SPHERE   2 =   7.9235    (RMT=  2.5000 )
:PCS002: PARTIAL CHARGES SPHERE =  2 S,P,D,F,PX,PY,PZ,D-Z2,D-X2Y2,D-XY,D-XZ,D-YZ 
:QTL002: 0.2163 3.2433 4.4468 0.0137 1.0801 1.0801 1.0831 0.9043 0.8984 0.8956 0.8742 0.8742
        Q-s-low E-s-low   Q-p-low E-p-low   Q-d-low E-d-low   Q-f-low E-f-low
:EPL002:  0.0524 -0.2042    3.0273 -3.1175    0.0317 -0.1909    0.0014 -0.6063
        Q-s-hi  E-s-hi    Q-p-hi  E-p-hi    Q-d-hi  E-d-hi    Q-f-hi  E-f-hi 
:EPH002:  0.1639  0.2231    0.2160  0.3217    4.4151  0.3316    0.0123  0.3499

                      VXX         VYY         VZZ       UP TO R
:VZZ002:            -0.09761    -0.09761     0.19522       2.500

:POS003: ATOM   -3 X,Y,Z = 0.00000 0.50000 0.28000  MULT= 1  ZZ= 51.000  Sb1       

       LMMAX 16
       LM=   0 0  1 0  2 0  2 2  3 0  3 2  4 0  4 2  4 4  5 0  5 2  5 4  6 0  6 2  6 4  6 6

:CHA003: TOTAL VALENCE CHARGE INSIDE SPHERE   3 =   6.2724    (RMT=  2.5000 )
:PCS003: PARTIAL CHARGES SPHERE =  3 S,P,D,F,PX,PY,PZ,D-Z2,D-X2Y2,D-XY,D-XZ,D-YZ 
:QTL003: 0.6077 0.6398 5.0075 0.0138 0.2088 0.2088 0.2221 1.0015 0.9997 1.0030 1.0016 1.0016
        Q-s-low E-s-low   Q-p-low E-p-low   Q-d-low E-d-low   Q-f-low E-f-low
:EPL003:  0.4924 -0.1570    0.0112 -0.2103    4.9561 -1.4550    0.0003 -1.2212
        Q-s-hi  E-s-hi    Q-p-hi  E-p-hi    Q-d-hi  E-d-hi    Q-f-hi  E-f-hi 
:EPH003:  0.1153  0.3395    0.6286  0.3133    0.0514  0.3334    0.0135  0.3454

                      VXX         VYY         VZZ       UP TO R
:VZZ003:             1.51904     1.51904    -3.03807       2.500

:POS004: ATOM   -4 X,Y,Z = 0.50000 0.00000 0.72000  MULT= 1  ZZ= 51.000  Sb2       

       LMMAX 16
       LM=   0 0  1 0  2 0  2 2  3 0  3 2  4 0  4 2  4 4  5 0  5 2  5 4  6 0  6 2  6 4  6 6

:CHA004: TOTAL VALENCE CHARGE INSIDE SPHERE   4 =   6.2724    (RMT=  2.5000 )
:PCS004: PARTIAL CHARGES SPHERE =  4 S,P,D,F,PX,PY,PZ,D-Z2,D-X2Y2,D-XY,D-XZ,D-YZ 
:QTL004: 0.6077 0.6398 5.0075 0.0138 0.2088 0.2088 0.2221 1.0015 0.9997 1.0030 1.0016 1.0016
        Q-s-low E-s-low   Q-p-low E-p-low   Q-d-low E-d-low   Q-f-low E-f-low
:EPL004:  0.4924 -0.1570    0.0112 -0.2103    4.9561 -1.4550    0.0003 -1.2212
        Q-s-hi  E-s-hi    Q-p-hi  E-p-hi    Q-d-hi  E-d-hi    Q-f-hi  E-f-hi 
:EPH004:  0.1153  0.3395    0.6286  0.3133    0.0514  0.3334    0.0135  0.3454

                      VXX         VYY         VZZ       UP TO R
:VZZ004:             1.51904     1.51904    -3.03807       2.500

:POS005: ATOM   -5 X,Y,Z = 0.00000 0.50000 0.70500  MULT= 1  ZZ= 25.000  Mn3       

       LMMAX 16
       LM=   0 0  1 0  2 0  2 2  3 0  3 2  4 0  4 2  4 4  5 0  5 2  5 4  6 0  6 2  6 4  6 6

:CHA005: TOTAL VALENCE CHARGE INSIDE SPHERE   5 =   7.8571    (RMT=  2.5000 )
:PCS005: PARTIAL CHARGES SPHERE =  5 S,P,D,F,PX,PY,PZ,D-Z2,D-X2Y2,D-XY,D-XZ,D-YZ 
:QTL005: 0.1976 3.1736 4.4745 0.0091 1.0556 1.0556 1.0623 0.8843 0.9072 0.8771 0.9030 0.9030
        Q-s-low E-s-low   Q-p-low E-p-low   Q-d-low E-d-low   Q-f-low E-f-low
:EPL005:  0.0250 -0.2079    3.0114 -3.1041    0.0188 -0.1872    0.0010 -0.4847
        Q-s-hi  E-s-hi    Q-p-hi  E-p-hi    Q-d-hi  E-d-hi    Q-f-hi  E-f-hi 
:EPH005:  0.1726  0.2623    0.1621  0.3422    4.4557  0.3696    0.0082  0.3438

                      VXX         VYY         VZZ       UP TO R
:VZZ005:             0.32020     0.32019    -0.64039       2.500

:POS006: ATOM   -6 X,Y,Z = 0.50000 0.00000 0.29500  MULT= 1  ZZ= 25.000  Mn4       

       LMMAX 16
       LM=   0 0  1 0  2 0  2 2  3 0  3 2  4 0  4 2  4 4  5 0  5 2  5 4  6 0  6 2  6 4  6 6

:CHA006: TOTAL VALENCE CHARGE INSIDE SPHERE   6 =   7.8571    (RMT=  2.5000 )
:PCS006: PARTIAL CHARGES SPHERE =  6 S,P,D,F,PX,PY,PZ,D-Z2,D-X2Y2,D-XY,D-XZ,D-YZ 
:QTL006: 0.1976 3.1736 4.4745 0.0091 1.0556 1.0556 1.0623 0.8843 0.9072 0.8771 0.9030 0.9030
        Q-s-low E-s-low   Q-p-low E-p-low   Q-d-low E-d-low   Q-f-low E-f-low
:EPL006:  0.0250 -0.2079    3.0114 -3.1041    0.0188 -0.1872    0.0010 -0.4847
        Q-s-hi  E-s-hi    Q-p-hi  E-p-hi    Q-d-hi  E-d-hi    Q-f-hi  E-f-hi 
:EPH006:  0.1726  0.2623    0.1621  0.3422    4.4557  0.3696    0.0082  0.3438

                      VXX         VYY         VZZ       UP TO R
:VZZ006:             0.32020     0.32020    -0.64039       2.500

:CHA  : TOTAL VALENCE CHARGE INSIDE UNIT CELL =      48.313032

:SUM  : SUM OF EIGENVALUES =         -44.303793489

:GAP (global)   :    0.0    Ry =     0.0   eV (metal)
:GAP (this spin):    0.0    Ry =     0.0   eV (metal)
         Bandranges (emin - emax) and occupancy:
:BAN00024:  24   -0.183167   -0.084578  1.00000000
:BAN00025:  25    0.153785    0.273429  1.00000000
:BAN00026:  26    0.154381    0.378520  1.00000000
:BAN00027:  27    0.259712    0.414642  1.00000000
:BAN00028:  28    0.300140    0.418538  1.00000000
:BAN00029:  29    0.345028    0.456037  1.00000000
:BAN00030:  30    0.349292    0.465030  1.00000000
:BAN00031:  31    0.429663    0.516094  1.00000000
:BAN00032:  32    0.430402    0.522803  1.00000000
:BAN00033:  33    0.491581    0.561099  1.00000000
:BAN00034:  34    0.498784    0.592699  0.68696827
:BAN00035:  35    0.570501    0.620561  0.00000000
:BAN00036:  36    0.591757    0.631772  0.00000000
:BAN00037:  37    0.605633    0.656754  0.00000000
:BAN00038:  38    0.633343    0.679770  0.00000000
:BAN00039:  39    0.641961    0.696867  0.00000000
        Energy to separate low and high energystates:    0.10378


:NOE  : NUMBER OF ELECTRONS          =   82.000

:FER  : F E R M I - ENERGY(TETRAH.M.)=   0.5670071214
:GMA  : POTENTIAL AND CHARGE CUT-OFF  12.00 Ry**.5

:POS001: ATOM   -1 X,Y,Z = 0.00000 0.00000 0.00000  MULT= 1  ZZ= 25.000  Mn1       

       LMMAX 16
       LM=   0 0  1 0  2 0  2 2  3 0  3 2  4 0  4 2  4 4  5 0  5 2  5 4  6 0  6 2  6 4  6 6

:CHA001: TOTAL VALENCE CHARGE INSIDE SPHERE   1 =   4.5615    (RMT=  2.5000 )
:PCS001: PARTIAL CHARGES SPHERE =  1 S,P,D,F,PX,PY,PZ,D-Z2,D-X2Y2,D-XY,D-XZ,D-YZ 
:QTL001: 0.1896 3.2187 1.1416 0.0100 1.0748 1.0748 1.0691 0.2110 0.1396 0.3274 0.2318 0.2318
        Q-s-low E-s-low   Q-p-low E-p-low   Q-d-low E-d-low   Q-f-low E-f-low
:EPL001:  0.0402 -0.1797    3.0216 -2.7582    0.0184 -0.2053    0.0016 -0.5446
        Q-s-hi  E-s-hi    Q-p-hi  E-p-hi    Q-d-hi  E-d-hi    Q-f-hi  E-f-hi 
:EPH001:  0.1494  0.2787    0.1971  0.3872    1.1232  0.4756    0.0084  0.4296

                      VXX         VYY         VZZ       UP TO R
:VZZ001:            -0.54699    -0.54699     1.09399       2.500

:POS002: ATOM   -2 X,Y,Z = 0.50000 0.50000 0.00000  MULT= 1  ZZ= 25.000  Mn2       

       LMMAX 16
       LM=   0 0  1 0  2 0  2 2  3 0  3 2  4 0  4 2  4 4  5 0  5 2  5 4  6 0  6 2  6 4  6 6

:CHA002: TOTAL VALENCE CHARGE INSIDE SPHERE   2 =   4.5615    (RMT=  2.5000 )
:PCS002: PARTIAL CHARGES SPHERE =  2 S,P,D,F,PX,PY,PZ,D-Z2,D-X2Y2,D-XY,D-XZ,D-YZ 
:QTL002: 0.1896 3.2187 1.1416 0.0100 1.0748 1.0748 1.0691 0.2110 0.1396 0.3274 0.2318 0.2318
        Q-s-low E-s-low   Q-p-low E-p-low   Q-d-low E-d-low   Q-f-low E-f-low
:EPL002:  0.0402 -0.1797    3.0216 -2.7582    0.0184 -0.2053    0.0016 -0.5446
        Q-s-hi  E-s-hi    Q-p-hi  E-p-hi    Q-d-hi  E-d-hi    Q-f-hi  E-f-hi 
:EPH002:  0.1494  0.2787    0.1971  0.3872    1.1232  0.4756    0.0084  0.4296

                      VXX         VYY         VZZ       UP TO R
:VZZ002:            -0.54699    -0.54699     1.09399       2.500

:POS003: ATOM   -3 X,Y,Z = 0.00000 0.50000 0.28000  MULT= 1  ZZ= 51.000  Sb1       

       LMMAX 16
       LM=   0 0  1 0  2 0  2 2  3 0  3 2  4 0  4 2  4 4  5 0  5 2  5 4  6 0  6 2  6 4  6 6

:CHA003: TOTAL VALENCE CHARGE INSIDE SPHERE   3 =   6.3965    (RMT=  2.5000 )
:PCS003: PARTIAL CHARGES SPHERE =  3 S,P,D,F,PX,PY,PZ,D-Z2,D-X2Y2,D-XY,D-XZ,D-YZ 
:QTL003: 0.5999 0.7887 4.9985 0.0083 0.2575 0.2575 0.2738 1.0010 0.9966 1.0014 0.9998 0.9998
        Q-s-low E-s-low   Q-p-low E-p-low   Q-d-low E-d-low   Q-f-low E-f-low
:EPL003:  0.5379 -0.1331    0.0096 -0.2044    4.9565 -1.4556    0.0003 -1.3559
        Q-s-hi  E-s-hi    Q-p-hi  E-p-hi    Q-d-hi  E-d-hi    Q-f-hi  E-f-hi 
:EPH003:  0.0620  0.2970    0.7790  0.3558    0.0420  0.4451    0.0080  0.4844

                      VXX         VYY         VZZ       UP TO R
:VZZ003:             2.01709     2.01709    -4.03418       2.500

:POS004: ATOM   -4 X,Y,Z = 0.50000 0.00000 0.72000  MULT= 1  ZZ= 51.000  Sb2       

       LMMAX 16
       LM=   0 0  1 0  2 0  2 2  3 0  3 2  4 0  4 2  4 4  5 0  5 2  5 4  6 0  6 2  6 4  6 6

:CHA004: TOTAL VALENCE CHARGE INSIDE SPHERE   4 =   6.3965    (RMT=  2.5000 )
:PCS004: PARTIAL CHARGES SPHERE =  4 S,P,D,F,PX,PY,PZ,D-Z2,D-X2Y2,D-XY,D-XZ,D-YZ 
:QTL004: 0.5999 0.7887 4.9985 0.0083 0.2575 0.2575 0.2738 1.0010 0.9966 1.0014 0.9998 0.9998
        Q-s-low E-s-low   Q-p-low E-p-low   Q-d-low E-d-low   Q-f-low E-f-low
:EPL004:  0.5379 -0.1331    0.0096 -0.2044    4.9565 -1.4556    0.0003 -1.3559
        Q-s-hi  E-s-hi    Q-p-hi  E-p-hi    Q-d-hi  E-d-hi    Q-f-hi  E-f-hi 
:EPH004:  0.0620  0.2970    0.7790  0.3558    0.0420  0.4451    0.0080  0.4844

                      VXX         VYY         VZZ       UP TO R
:VZZ004:             2.01709     2.01709    -4.03418       2.500

:POS005: ATOM   -5 X,Y,Z = 0.00000 0.50000 0.70500  MULT= 1  ZZ= 25.000  Mn3       

       LMMAX 16
       LM=   0 0  1 0  2 0  2 2  3 0  3 2  4 0  4 2  4 4  5 0  5 2  5 4  6 0  6 2  6 4  6 6

:CHA005: TOTAL VALENCE CHARGE INSIDE SPHERE   5 =   3.8636    (RMT=  2.5000 )
:PCS005: PARTIAL CHARGES SPHERE =  5 S,P,D,F,PX,PY,PZ,D-Z2,D-X2Y2,D-XY,D-XZ,D-YZ 
:QTL005: 0.1650 3.1521 0.5375 0.0075 1.0455 1.0455 1.0611 0.1393 0.0669 0.1113 0.1100 0.1100
        Q-s-low E-s-low   Q-p-low E-p-low   Q-d-low E-d-low   Q-f-low E-f-low
:EPL005:  0.0203 -0.1856    3.0086 -2.7395    0.0114 -0.1966    0.0010 -0.4518
        Q-s-hi  E-s-hi    Q-p-hi  E-p-hi    Q-d-hi  E-d-hi    Q-f-hi  E-f-hi 
:EPH005:  0.1447  0.3131    0.1435  0.3875    0.5261  0.4661    0.0065  0.4229

                      VXX         VYY         VZZ       UP TO R
:VZZ005:             1.40267     1.40267    -2.80534       2.500

:POS006: ATOM   -6 X,Y,Z = 0.50000 0.00000 0.29500  MULT= 1  ZZ= 25.000  Mn4       

       LMMAX 16
       LM=   0 0  1 0  2 0  2 2  3 0  3 2  4 0  4 2  4 4  5 0  5 2  5 4  6 0  6 2  6 4  6 6

:CHA006: TOTAL VALENCE CHARGE INSIDE SPHERE   6 =   3.8636    (RMT=  2.5000 )
:PCS006: PARTIAL CHARGES SPHERE =  6 S,P,D,F,PX,PY,PZ,D-Z2,D-X2Y2,D-XY,D-XZ,D-YZ 
:QTL006: 0.1650 3.1521 0.5375 0.0075 1.0455 1.0455 1.0611 0.1393 0.0669 0.1113 0.1100 0.1100
        Q-s-low E-s-low   Q-p-low E-p-low   Q-d-low E-d-low   Q-f-low E-f-low
:EPL006:  0.0203 -0.1856    3.0086 -2.7395    0.0114 -0.1966    0.0010 -0.4518
        Q-s-hi  E-s-hi    Q-p-hi  E-p-hi    Q-d-hi  E-d-hi    Q-f-hi  E-f-hi 
:EPH006:  0.1447  0.3131    0.1435  0.3875    0.5261  0.4661    0.0065  0.4229

                      VXX         VYY         VZZ       UP TO R
:VZZ006:             1.40267     1.40267    -2.80534       2.500

:CHA  : TOTAL VALENCE CHARGE INSIDE UNIT CELL =      33.686968

:SUM  : SUM OF EIGENVALUES =         -44.171371442


        1.ATOM      Mn1                   5 CORE STATES
       CORE-FORCE in mRy/a.u. = |F|      Fx             Fy             Fz
:FCO001:   1.ATOM      0.000000002273      0.000000000000      0.000000000000     -0.000000002273

:1S 001: 1S                -471.390736700 Ry
:2S 001: 2S                 -53.656402342 Ry
:2PP001: 2P*                -45.790069008 Ry
:2P 001: 2P                 -45.024996818 Ry
:3S 001: 3S                  -5.446478726 Ry

        2.ATOM      Mn2                   5 CORE STATES
       CORE-FORCE in mRy/a.u. = |F|      Fx             Fy             Fz
:FCO002:   2.ATOM      0.000000003290      0.000000000000      0.000000000000     -0.000000003290

:1S 002: 1S                -471.390736700 Ry
:2S 002: 2S                 -53.656402342 Ry
:2PP002: 2P*                -45.790069008 Ry
:2P 002: 2P                 -45.024996818 Ry
:3S 002: 3S                  -5.446478726 Ry

        3.ATOM      Sb1                  12 CORE STATES
       CORE-FORCE in mRy/a.u. = |F|      Fx             Fy             Fz
:FCO003:   3.ATOM    698.063617872855      0.000000000000      0.000000000000   -698.063617872855

:1S 003: 1S               -2224.881748109 Ry
:2S 003: 2S                -337.582023147 Ry
:2PP003: 2P*               -315.742857543 Ry
:2P 003: 2P                -297.234711402 Ry
:3S 003: 3S                 -65.361586172 Ry
:3PP003: 3P*                -56.437562067 Ry
:3P 003: 3P                 -53.022548892 Ry
:3DD003: 3D*                -37.270934341 Ry
:3D 003: 3D                 -36.561278074 Ry
:4S 003: 4S                  -9.913005099 Ry
:4PP003: 4P*                 -6.897761729 Ry
:4P 003: 4P                  -6.267782370 Ry

        4.ATOM      Sb2                  12 CORE STATES
       CORE-FORCE in mRy/a.u. = |F|      Fx             Fy             Fz
:FCO004:   4.ATOM    698.063617868418      0.000000000000      0.000000000000    698.063617868418

:1S 004: 1S               -2224.881748109 Ry
:2S 004: 2S                -337.582023147 Ry
:2PP004: 2P*               -315.742857543 Ry
:2P 004: 2P                -297.234711402 Ry
:3S 004: 3S                 -65.361586172 Ry
:3PP004: 3P*                -56.437562067 Ry
:3P 004: 3P                 -53.022548892 Ry
:3DD004: 3D*                -37.270934341 Ry
:3D 004: 3D                 -36.561278074 Ry
:4S 004: 4S                  -9.913005099 Ry
:4PP004: 4P*                 -6.897761729 Ry
:4P 004: 4P                  -6.267782370 Ry

        5.ATOM      Mn3                   5 CORE STATES
       CORE-FORCE in mRy/a.u. = |F|      Fx             Fy             Fz
:FCO005:   5.ATOM    198.209801063153      0.000000000000      0.000000000000    198.209801063153

:1S 005: 1S                -471.368227338 Ry
:2S 005: 2S                 -53.633328634 Ry
:2PP005: 2P*                -45.767113302 Ry
:2P 005: 2P                 -45.002030243 Ry
:3S 005: 3S                  -5.418276946 Ry

        6.ATOM      Mn4                   5 CORE STATES
       CORE-FORCE in mRy/a.u. = |F|      Fx             Fy             Fz
:FCO006:   6.ATOM    198.209801065190      0.000000000000      0.000000000000   -198.209801065190

:1S 006: 1S                -471.368227338 Ry
:2S 006: 2S                 -53.633328634 Ry
:2PP006: 2P*                -45.767113302 Ry
:2P 006: 2P                 -45.002030243 Ry
:3S 006: 3S                  -5.418276946 Ry

        1.ATOM      Mn1                   5 CORE STATES
       CORE-FORCE in mRy/a.u. = |F|      Fx             Fy             Fz
:FCO001:   1.ATOM      0.000000005966      0.000000000000      0.000000000000     -0.000000005966

:1S 001: 1S                -471.391599783 Ry
:2S 001: 2S                 -53.505195027 Ry
:2PP001: 2P*                -45.677176059 Ry
:2P 001: 2P                 -44.908987868 Ry
:3S 001: 3S                  -5.071857964 Ry

        2.ATOM      Mn2                   5 CORE STATES
       CORE-FORCE in mRy/a.u. = |F|      Fx             Fy             Fz
:FCO002:   2.ATOM      0.000000000801      0.000000000000      0.000000000000      0.000000000801

:1S 002: 1S                -471.391599783 Ry
:2S 002: 2S                 -53.505195027 Ry
:2PP002: 2P*                -45.677176059 Ry
:2P 002: 2P                 -44.908987868 Ry
:3S 002: 3S                  -5.071857964 Ry

        3.ATOM      Sb1                  12 CORE STATES
       CORE-FORCE in mRy/a.u. = |F|      Fx             Fy             Fz
:FCO003:   3.ATOM    698.513560522066      0.000000000000      0.000000000000   -698.513560522066

:1S 003: 1S               -2224.881749633 Ry
:2S 003: 2S                -337.582034148 Ry
:2PP003: 2P*               -315.742866190 Ry
:2P 003: 2P                -297.234720710 Ry
:3S 003: 3S                 -65.361644114 Ry
:3PP003: 3P*                -56.437617622 Ry
:3P 003: 3P                 -53.022608536 Ry
:3DD003: 3D*                -37.270985445 Ry
:3D 003: 3D                 -36.561330301 Ry
:4S 003: 4S                  -9.913281436 Ry
:4PP003: 4P*                 -6.898081342 Ry
:4P 003: 4P                  -6.268130131 Ry

        4.ATOM      Sb2                  12 CORE STATES
       CORE-FORCE in mRy/a.u. = |F|      Fx             Fy             Fz
:FCO004:   4.ATOM    698.513560532174      0.000000000000      0.000000000000    698.513560532174

:1S 004: 1S               -2224.881749633 Ry
:2S 004: 2S                -337.582034148 Ry
:2PP004: 2P*               -315.742866190 Ry
:2P 004: 2P                -297.234720710 Ry
:3S 004: 3S                 -65.361644114 Ry
:3PP004: 3P*                -56.437617622 Ry
:3P 004: 3P                 -53.022608536 Ry
:3DD004: 3D*                -37.270985445 Ry
:3D 004: 3D                 -36.561330301 Ry
:4S 004: 4S                  -9.913281436 Ry
:4PP004: 4P*                 -6.898081342 Ry
:4P 004: 4P                  -6.268130131 Ry

        5.ATOM      Mn3                   5 CORE STATES
       CORE-FORCE in mRy/a.u. = |F|      Fx             Fy             Fz
:FCO005:   5.ATOM    200.058388534651      0.000000000000      0.000000000000    200.058388534651

:1S 005: 1S                -471.369088027 Ry
:2S 005: 2S                 -53.482085586 Ry
:2PP005: 2P*                -45.654192679 Ry
:2P 005: 2P                 -44.885992991 Ry
:3S 005: 3S                  -5.042814701 Ry

        6.ATOM      Mn4                   5 CORE STATES
       CORE-FORCE in mRy/a.u. = |F|      Fx             Fy             Fz
:FCO006:   6.ATOM    200.058388536996      0.000000000000      0.000000000000   -200.058388536996

:1S 006: 1S                -471.369088027 Ry
:2S 006: 2S                 -53.482085586 Ry
:2PP006: 2P*                -45.654192679 Ry
:2P 006: 2P                 -44.885992991 Ry
:3S 006: 3S                  -5.042814701 Ry
:CINT001 Core Integral Atom   1 Up    5.999553 Dn   5.999471 Total  11.999024
:CINT002 Core Integral Atom   2 Up    5.999553 Dn   5.999471 Total  11.999024
:CINT003 Core Integral Atom   3 Up   17.999301 Dn  17.999298 Total  35.998599
:CINT004 Core Integral Atom   4 Up   17.999301 Dn  17.999298 Total  35.998599
:CINT005 Core Integral Atom   5 Up    5.999568 Dn   5.999490 Total  11.999058
:CINT006 Core Integral Atom   6 Up    5.999568 Dn   5.999490 Total  11.999058

       DENSITY AT NUCLEUS
        JATOM        VALENCE       SEMI-CORE          CORE           TOTAL
:RTO001:   1        5.462185        0.000000    13329.547100    13335.009285
:RTO002:   2        5.462185        0.000000    13329.547100    13335.009285
:RTO003:   3       90.180344        0.000000   229672.788517   229762.968861
:RTO004:   4       90.180344        0.000000   229672.788517   229762.968861
:RTO005:   5        4.929872        0.000000    13329.729236    13334.659108
:RTO006:   6        4.929872        0.000000    13329.729236    13334.659108

       HYPERFINE FIELDS FOR THOMSON RADIUS
:HFF001:          225.550           0.000        -569.150        -343.599 (KGAUSS)
:HFF002:          225.550           0.000        -569.150        -343.599 (KGAUSS)
:HFF003:          306.628           0.000           3.646         310.274 (KGAUSS)
:HFF004:          306.628           0.000           3.646         310.274 (KGAUSS)
:HFF005:          262.418           0.000        -575.083        -312.665 (KGAUSS)
:HFF006:          262.418           0.000        -575.083        -312.665 (KGAUSS)
     
       CHARGES OF NEW CHARGE DENSITY
:NTO   : INTERSTITIAL     UP =     4.207144 DN =     4.043664 TOT =     8.250808
:NPC   : PW Pseudocharge  UP =     8.550912 DN =     7.145560 TOT =    15.696473
:NTO001: CHARGE SPHERE  1 UP =    13.923049 DN =    10.560969 TOT =    24.484019
:NTO002: CHARGE SPHERE  2 UP =    13.923049 DN =    10.560969 TOT =    24.484019
:NTO003: CHARGE SPHERE  3 UP =    24.271651 DN =    24.395847 TOT =    48.667498
:NTO004: CHARGE SPHERE  4 UP =    24.271651 DN =    24.395847 TOT =    48.667498
:NTO005: CHARGE SPHERE  5 UP =    13.856651 DN =     9.863088 TOT =    23.719740
:NTO006: CHARGE SPHERE  6 UP =    13.856651 DN =     9.863088 TOT =    23.719740

:NEC01: NUCLEAR AND ELECTRONIC CHARGE    202.00000   201.99332
     
       CHARGES OF OLD CHARGE DENSITY
:OTO   : INTERSTITIAL     UP =     4.405765 DN =     3.664675 TOT =     8.070441
:OPC   : PW Pseudocharge  UP =    15.295879 DN =     9.443539 TOT =    24.739418
:OTO001: CHARGE SPHERE  1 UP =    14.439095 DN =     9.626261 TOT =    24.065355
:OTO002: CHARGE SPHERE  2 UP =    14.439095 DN =     9.626261 TOT =    24.065355
:OTO003: CHARGE SPHERE  3 UP =    24.508690 DN =    24.503193 TOT =    49.011883
:OTO004: CHARGE SPHERE  4 UP =    24.508690 DN =    24.503193 TOT =    49.011883
:OTO005: CHARGE SPHERE  5 UP =    14.350933 DN =     9.540350 TOT =    23.891284
:OTO006: CHARGE SPHERE  6 UP =    14.350933 DN =     9.540350 TOT =    23.891284

:NEC02: NUCLEAR AND ELECTRONIC CHARGE    202.00000   202.00749
     
       CONVERGENCE TEST
:DTO001: DIFFERENCE SPHERE  1 UP =  0.5533643 DN =  0.8059030 TOT =  1.3592673
:DTO002: DIFFERENCE SPHERE  2 UP =  0.5533643 DN =  0.8059030 TOT =  1.3592673
:DTO003: DIFFERENCE SPHERE  3 UP =  0.1283083 DN =  0.0880764 TOT =  0.2163847
:DTO004: DIFFERENCE SPHERE  4 UP =  0.1283083 DN =  0.0880764 TOT =  0.2163848
:DTO005: DIFFERENCE SPHERE  5 UP =  0.4799733 DN =  0.3369797 TOT =  0.8169529
:DTO006: DIFFERENCE SPHERE  6 UP =  0.4799733 DN =  0.3369797 TOT =  0.8169529

:DIS  :  CHARGE DISTANCE       ( 0.8059030 for atom    1 spin 2)      1.5950700
 PW Mixed is          661
 
******************************************************
* MULTISECANT MIXING VER9 RELEASE 10.4.0              *
* Standard Mode with controls                        *
* Fixed density scale                                *
* Regularization       1.000E-04                     *
* Trust Upper Limit    5.000E+00                     *
* Max Number of Memory Steps    8                    *
******************************************************
 
:PWTMP   3.4441E+02  7.5000E+02  7.3711E+02
:PLANE:  PW TOTAL      5.5229 DISTAN   2.94E+00  5.32E+01 %
:CHARG:  CLM/ATOM    134.0229 DISTAN   2.74E-01  2.05E-01 %
INFO: Reducing dbase  2.50000E-02 1.59507E+00 1.97948E-02
 
Step History
        DMIX         DMIXT        Red     Pred      Trust     Lambda    MagRel    MagAbs     Beta
  1   3.5000E-02   3.5000E-02 -1.00E+00  1.00E+00 -1.00E+01  1.00E+00  3.50E-02  3.50E-02  1.00E+00
:INFO :  Note, Pratt in use
INFO: Reducing dbase  1.97948E-02 1.59507E+00 1.56733E-02
:TRUST:  Step 2.73E-02  Charge 7.50E-02 (e) CTO  2.50E-01 (e) PW  3.50E-01 (e)
:DIRM :  MEMORY  0/ 8 SCALE   1.000
Performing Pseudo Compensation
Final Pseudo Compensation Rescaling     9.99768E-01
Final Pseudo Compensation Rescaling     1.00074E+00
:MIX  :   PRATT  REGULARIZATION:  1.00E-04 GREED: 0.01823                  
     
       CHARGES OF MIXED CHARGE DENSITY
:CTO   : INTERSTITIAL     UP =     4.398194 DN =     3.668308 TOT =     8.066502
:CPC   : PW Pseudocharge  UP =    10.645269 DN =     7.565680 TOT =    18.210949
:CTO001: CHARGE SPHERE  1 UP =    14.429685 DN =     9.643303 TOT =    24.072989
:CTO002: CHARGE SPHERE  2 UP =    14.429685 DN =     9.643303 TOT =    24.072989
:CTO003: CHARGE SPHERE  3 UP =    24.504368 DN =    24.501236 TOT =    49.005604
:CTO004: CHARGE SPHERE  4 UP =    24.504368 DN =    24.501236 TOT =    49.005604
:CTO005: CHARGE SPHERE  5 UP =    14.341921 DN =     9.546235 TOT =    23.888156
:CTO006: CHARGE SPHERE  6 UP =    14.341921 DN =     9.546235 TOT =    23.888156

       SPIN MAGNETIC MOMENTS OF MIXED CHARGE DENSITY
:MMINT:  MAGNETIC MOMENT IN INTERSTITIAL  =    0.72989
:MMI001: MAGNETIC MOMENT IN SPHERE   1    =    4.78638
:MMI002: MAGNETIC MOMENT IN SPHERE   2    =    4.78638
:MMI003: MAGNETIC MOMENT IN SPHERE   3    =    0.00313
:MMI004: MAGNETIC MOMENT IN SPHERE   4    =    0.00313
:MMI005: MAGNETIC MOMENT IN SPHERE   5    =    4.79569
:MMI006: MAGNETIC MOMENT IN SPHERE   6    =    4.79569
:MMTOT:  SPIN MAGNETIC MOMENT IN CELL     =   19.90029

:NEC03: NUCLEAR AND ELECTRONIC CHARGE    202.00000   202.00000

PW CHANGE     H    K    L             Current                    Change               Residue
:PUP001:      0    0    0  2.04087966E-02 0.00000000E+00 -6.295E-03  0.000E+00 -9.381E-03  0.000E+00
:PUP002:      0    0   -1  1.89271030E-03 1.08395018E-18 -1.130E-03  1.084E-18 -1.233E-03  0.000E+00
:PUP003:      0    0    1  1.89271030E-03-1.08395018E-18 -1.130E-03 -1.084E-18 -1.233E-03  0.000E+00
:PUP006:     -1    0   -1 -3.72256916E-17 2.75930279E-03 -3.452E-17  5.033E-04 -2.640E-17  6.431E-04
:PUP007:     -1    0    1 -3.72256916E-17-2.75930279E-03 -3.452E-17 -5.033E-04 -2.640E-17 -6.431E-04
:PUP008:      0   -1   -1 -1.47498554E-17-2.75930279E-03 -1.460E-17 -5.033E-04 -2.786E-17 -6.431E-04
:PUP009:      0   -1    1 -1.47498554E-17 2.75930279E-03 -1.460E-17  5.033E-04 -2.786E-17  6.431E-04
:PUP010:      0    0   -2 -2.47306151E-03 1.08395018E-18  1.078E-03  1.084E-18  1.359E-03  0.000E+00
:PUP011:      0    0    2 -2.47306151E-03-1.08395018E-18  1.078E-03 -1.084E-18  1.359E-03  0.000E+00
:PUP012:     -1   -1    0 -8.75300864E-03-6.34800668E-19  5.303E-03 -6.348E-19  6.564E-03  0.000E+00
:PUP013:     -1   -1   -1  5.77567437E-03-1.73432028E-18 -8.256E-03 -1.734E-18 -1.029E-02  0.000E+00
:PUP014:     -1   -1    1  5.77567437E-03 3.46864057E-18 -8.256E-03  3.469E-18 -1.029E-02  0.000E+00
  
:PDN001:      0    0    0  1.52406506E-02 0.00000000E+00 -2.526E-03  0.000E+00 -2.575E-03  0.000E+00
:PDN002:      0    0   -1  3.18911739E-04 1.27488120E-18  1.452E-04  1.275E-18  1.312E-03  0.000E+00
:PDN003:      0    0    1  3.18911739E-04-1.27488120E-18  1.452E-04 -1.275E-18  1.312E-03  0.000E+00
:PDN006:     -1    0   -1 -2.04216873E-17 5.43087350E-03 -1.967E-17 -2.021E-03 -1.135E-17 -2.790E-03
:PDN007:     -1    0    1 -2.04216873E-17-5.43087350E-03 -1.967E-17  2.021E-03 -1.135E-17  2.790E-03
:PDN008:      0   -1   -1 -4.94574529E-18-5.43087350E-03 -4.682E-18  2.021E-03 -1.506E-17  2.790E-03
:PDN009:      0   -1    1 -4.94574529E-18 5.43087350E-03 -4.682E-18 -2.021E-03 -1.506E-17 -2.790E-03
:PDN010:      0    0   -2 -2.64744406E-03 7.05253429E-19  1.300E-03  7.053E-19  1.704E-03  0.000E+00
:PDN011:      0    0    2 -2.64744406E-03-7.05253429E-19  1.300E-03 -7.053E-19  1.704E-03  0.000E+00
:PDN012:     -1   -1    0 -8.71394388E-03-6.40779995E-19  5.343E-03 -6.408E-19  6.095E-03  0.000E+00
:PDN013:     -1   -1   -1  2.37041110E-03-4.55702215E-18 -2.386E-03 -4.557E-18 -3.108E-03  0.000E+00
:PDN014:     -1   -1    1  2.37041110E-03 4.55702215E-18 -2.386E-03  4.557E-18 -3.108E-03  0.000E+00

:ENE  : ********** TOTAL ENERGY IN Ry =       -35203.64706411

       TOTAL FORCE IN mRy/a.u. = |F|     Fx             Fy             Fz     with/without FOR in case.in2
:FOR001:   1.ATOM          0.000          0.000          0.000         -0.000 partial forces
:FOR002:   2.ATOM          0.000          0.000          0.000         -0.000 partial forces
:FOR003:   3.ATOM        226.885          0.000          0.000        226.885 partial forces
:FOR004:   4.ATOM        226.885          0.000          0.000       -226.885 partial forces
:FOR005:   5.ATOM        194.061          0.000          0.000       -194.061 partial forces
:FOR006:   6.ATOM        194.061          0.000          0.000        194.061 partial forces
       TOTAL FORCE WITH RESPECT TO GLOBAL CARTESIAN COORDINATES:
:FCA001:   1.ATOM                         0.000          0.000         -0.000 partial forces
:FCA002:   2.ATOM                         0.000          0.000         -0.000 partial forces
:FCA003:   3.ATOM                         0.000          0.000        226.885 partial forces
:FCA004:   4.ATOM                         0.000          0.000       -226.885 partial forces
:FCA005:   5.ATOM                         0.000          0.000       -194.061 partial forces
:FCA006:   6.ATOM                         0.000          0.000        194.061 partial forces
       TOTAL FORCE WITH RESPECT TO THE GLOBAL COORDINATE SYSTEM:
:FGL001:   1.ATOM                 0.000000000     0.000000000    -0.000000004 partial forces
:FGL002:   2.ATOM                 0.000000000     0.000000000    -0.000000001 partial forces
:FGL003:   3.ATOM                 0.000000000     0.000000000   226.884811993 partial forces
:FGL004:   4.ATOM                 0.000000000     0.000000000  -226.884811996 partial forces
:FGL005:   5.ATOM                 0.000000000     0.000000000  -194.060875386 partial forces
:FGL006:   6.ATOM                 0.000000000     0.000000000   194.060875385 partial forces
 Flat Integration
 New Mode for Coulomb Integral
 Consistent 3/8+Simpson combinations
 Extension of core to zero
 LDM version in phi
 Fifth-order quadrature in outwin


            ---------
:ITE002:  2. ITERATION
            ---------

:NATO :    6 INDEPENDENT AND    6 TOTAL ATOMS IN UNITCELL
       SUBSTANCE: Mn2Sb (according to Wijngaard et al. '92)                   

       LATTICE                      = P   
:POT  : POTENTIAL OPTION EX_PBE EC_PBE VX_PBE VC_PBE
:LAT  : LATTICE CONSTANTS=  7.71000  7.71000 12.40000    1.571    1.571    1.571
:VOL  : UNIT CELL VOLUME =     737.10684
       MODE OF CALCULATION IS       = RELA
       SPINPOLARIZED CALCULATION
:IFFT  : FFT-parameters:   60   60   96 Factor: 2.00


   CONVERGENCE PARAMETER FOR PSEUDOCHARGE: NCON=  9
   MAXIMAL VALUE OF RMT(JATOM)*ABSK(NKK) : RK  =29.99674


:VKCOUL :  VK-COUL convergence: 0.109E-08
       ATOMNUMBER=  1 Mn1        VCOUL-ZERO =  0.44183E+00
:EFG001:                        EFG         =     0.03012   *10**21  V / m**2
                               V20  TOT/SRF=     0.02608     0.01453
                               V22  TOT/SRF=     0.00000     0.00000
                               V22M TOT/SRF=     0.00000     0.00000
                               V21  TOT/SRF=     0.00000     0.00000
                               V21M TOT/SRF=     0.00000     0.00000

             -0.01506    0.00000    0.00000       -0.01506    0.00000    0.00000
              0.00000   -0.01506    0.00000        0.00000   -0.01506    0.00000
              0.00000    0.00000    0.03012        0.00000    0.00000    0.03012

         MAIN DIRECTIONS OF THE EFG   1.0000  0.0000  0.0000
                                      0.0000  1.0000  0.0000
                                      0.0000  0.0000  1.0000
:ANG001:  ANGLE WITH OLD X-AXIS =         0.0

:ETA001:                         ASYMM. ETA =     0.00000


       ATOMNUMBER=  2 Mn2        VCOUL-ZERO =  0.44183E+00
:EFG002:                        EFG         =     0.03012   *10**21  V / m**2
                               V20  TOT/SRF=     0.02608     0.01453
                               V22  TOT/SRF=    -0.00000    -0.00000
                               V22M TOT/SRF=     0.00000     0.00000
                               V21  TOT/SRF=     0.00000     0.00000
                               V21M TOT/SRF=     0.00000     0.00000

             -0.01506    0.00000    0.00000       -0.01506    0.00000    0.00000
              0.00000   -0.01506    0.00000        0.00000   -0.01506    0.00000
              0.00000    0.00000    0.03012        0.00000    0.00000    0.03012

         MAIN DIRECTIONS OF THE EFG   1.0000  0.0000  0.0000
                                      0.0000  1.0000  0.0000
                                      0.0000  0.0000  1.0000
:ANG002:  ANGLE WITH OLD X-AXIS =         0.0

:ETA002:                         ASYMM. ETA =     0.00000


       ATOMNUMBER=  3 Sb1        VCOUL-ZERO =  0.38076E+00
:EFG003:                        EFG         =    -0.11605   *10**21  V / m**2
                               V20  TOT/SRF=    -0.10050     0.01837
                               V22  TOT/SRF=     0.00000     0.00000
                               V22M TOT/SRF=     0.00000     0.00000
                               V21  TOT/SRF=     0.00000     0.00000
                               V21M TOT/SRF=     0.00000     0.00000

              0.05803    0.00000    0.00000        0.05803    0.00000    0.00000
              0.00000    0.05803    0.00000        0.00000    0.05803    0.00000
              0.00000    0.00000   -0.11605        0.00000    0.00000   -0.11605

         MAIN DIRECTIONS OF THE EFG   1.0000  0.0000  0.0000
                                      0.0000  1.0000  0.0000
                                      0.0000  0.0000  1.0000
:ANG003:  ANGLE WITH OLD X-AXIS =         0.0

:ETA003:                         ASYMM. ETA =     0.00000


       ATOMNUMBER=  4 Sb2        VCOUL-ZERO =  0.38076E+00
:EFG004:                        EFG         =    -0.11605   *10**21  V / m**2
                               V20  TOT/SRF=    -0.10050     0.01837
                               V22  TOT/SRF=    -0.00000    -0.00000
                               V22M TOT/SRF=     0.00000     0.00000
                               V21  TOT/SRF=     0.00000     0.00000
                               V21M TOT/SRF=     0.00000     0.00000

              0.05803    0.00000    0.00000        0.05803    0.00000    0.00000
              0.00000    0.05803    0.00000        0.00000    0.05803    0.00000
              0.00000    0.00000   -0.11605        0.00000    0.00000   -0.11605

         MAIN DIRECTIONS OF THE EFG   1.0000  0.0000  0.0000
                                      0.0000  1.0000  0.0000
                                      0.0000  0.0000  1.0000
:ANG004:  ANGLE WITH OLD X-AXIS =         0.0

:ETA004:                         ASYMM. ETA =     0.00000


       ATOMNUMBER=  5 Mn3        VCOUL-ZERO =  0.50572E+00
:EFG005:                        EFG         =    -0.05011   *10**21  V / m**2
                               V20  TOT/SRF=    -0.04340     0.01412
                               V22  TOT/SRF=     0.00000     0.00000
                               V22M TOT/SRF=     0.00000     0.00000
                               V21  TOT/SRF=     0.00000     0.00000
                               V21M TOT/SRF=     0.00000     0.00000

              0.02506    0.00000    0.00000        0.02506    0.00000    0.00000
              0.00000    0.02505    0.00000        0.00000    0.02505    0.00000
              0.00000    0.00000   -0.05011        0.00000    0.00000   -0.05011

         MAIN DIRECTIONS OF THE EFG   1.0000  0.0000  0.0000
                                      0.0000  1.0000  0.0000
                                      0.0000  0.0000  1.0000
:ANG005:  ANGLE WITH OLD X-AXIS =         0.0

:ETA005:                         ASYMM. ETA =     0.00000


       ATOMNUMBER=  6 Mn4        VCOUL-ZERO =  0.50572E+00
:EFG006:                        EFG         =    -0.05011   *10**21  V / m**2
                               V20  TOT/SRF=    -0.04340     0.01412
                               V22  TOT/SRF=     0.00000    -0.00000
                               V22M TOT/SRF=     0.00000     0.00000
                               V21  TOT/SRF=     0.00000     0.00000
                               V21M TOT/SRF=     0.00000     0.00000

              0.02506    0.00000    0.00000        0.02506    0.00000    0.00000
              0.00000    0.02506    0.00000        0.00000    0.02506    0.00000
              0.00000    0.00000   -0.05011        0.00000    0.00000   -0.05011

         MAIN DIRECTIONS OF THE EFG   1.0000  0.0000  0.0000
                                      0.0000  1.0000  0.0000
                                      0.0000  0.0000  1.0000
:ANG006:  ANGLE WITH OLD X-AXIS =         0.0

:ETA006:                         ASYMM. ETA =     0.00000


     HELLMANN-FEYNMAN-FORCE IN mRy/a.u. = |F|  Fx       Fy             Fz
:FHF001:   1.ATOM      0.000001097660      0.000000000000      0.000000000000      0.000001097660

     HELLMANN-FEYNMAN-FORCE IN mRy/a.u. = |F|  Fx       Fy             Fz
:FHF002:   2.ATOM      0.000001125458      0.000000000000      0.000000000000      0.000001125458

     HELLMANN-FEYNMAN-FORCE IN mRy/a.u. = |F|  Fx       Fy             Fz
:FHF003:   3.ATOM    743.472900400807      0.000000000000      0.000000000000    743.472900400807

     HELLMANN-FEYNMAN-FORCE IN mRy/a.u. = |F|  Fx       Fy             Fz
:FHF004:   4.ATOM    743.472900533491      0.000000000000      0.000000000000   -743.472900533491

     HELLMANN-FEYNMAN-FORCE IN mRy/a.u. = |F|  Fx       Fy             Fz
:FHF005:   5.ATOM    295.409530600074      0.000000000000      0.000000000000   -295.409530600074

     HELLMANN-FEYNMAN-FORCE IN mRy/a.u. = |F|  Fx       Fy             Fz
:FHF006:   6.ATOM    295.409529745511      0.000000000000      0.000000000000    295.409529745511

:FIT001: LUSE= 13 SIGMA OF V-XC FIT FOR ATOM  1  0.3054884E-02
:FIT001: LUSE= 13 SIGMA OF V-XC FIT FOR ATOM  1  0.5190569E-02
:FIT002: LUSE= 13 SIGMA OF V-XC FIT FOR ATOM  2  0.3054884E-02
:FIT002: LUSE= 13 SIGMA OF V-XC FIT FOR ATOM  2  0.5190569E-02
:FIT003: LUSE= 13 SIGMA OF V-XC FIT FOR ATOM  3  0.7742076E-03
:FIT003: LUSE= 13 SIGMA OF V-XC FIT FOR ATOM  3  0.8335381E-03
:FIT004: LUSE= 13 SIGMA OF V-XC FIT FOR ATOM  4  0.7742076E-03
:FIT004: LUSE= 13 SIGMA OF V-XC FIT FOR ATOM  4  0.8335381E-03
:FIT005: LUSE= 13 SIGMA OF V-XC FIT FOR ATOM  5  0.3059461E-02
:FIT005: LUSE= 13 SIGMA OF V-XC FIT FOR ATOM  5  0.4067071E-02
:FIT006: LUSE= 13 SIGMA OF V-XC FIT FOR ATOM  6  0.3059461E-02
:FIT006: LUSE= 13 SIGMA OF V-XC FIT FOR ATOM  6  0.4067071E-02
:DEN  : DENSITY INTEGRAL  =        -14127.13518808   (Ry)
       ELS_POTENTIAL_AT Z=0 and Z=0.5:  -0.35990   0.73457
       ELS_POTENTIAL_AT Y=0 and Y=0.5:  -0.48283  -0.48283
:VZERO:v0,v0c,v0x  -1.11112  -0.35990  -0.75122 v5,v5c,v5x   0.15610   0.73457  -0.57846
:VZERY:v0,v0c,v0x  -1.23702  -0.48283  -0.75419 v5,v5c,v5x  -1.23702  -0.48283  -0.75419
:VZERX:v0,v0c,v0x  -1.23702  -0.48283  -0.75419 v5,v5c,v5x  -1.23702  -0.48283  -0.75419
:LMAX-WF:   10   Non-Spherical LMAX:   4

          ATOMIC SPHERE DEPENDENT PARAMETERS FOR ATOM  Mn1       
:e__0001: OVERALL ENERGY PARAMETER IS    0.3447
          OVERALL BASIS SET ON ATOM IS LAPW
:E1_0001: E( 1)=    0.3447
             APW+lo
:E1_0001: E( 1)=   -3.1690   E(BOTTOM)=   -3.203   E(TOP)=   -3.135  1  2   155
             LOCAL ORBITAL
:E2_0001: E( 2)=    0.2966   E(BOTTOM)=    0.069   E(TOP)=    0.524  0  1   125
             APW+lo
:E0_0001: E( 0)=    0.3447
             APW+lo

          ATOMIC SPHERE DEPENDENT PARAMETERS FOR ATOM  Mn2       
:e__0002: OVERALL ENERGY PARAMETER IS    0.3447
          OVERALL BASIS SET ON ATOM IS LAPW
:E1_0002: E( 1)=    0.3447
             APW+lo
:E1_0002: E( 1)=   -3.1690   E(BOTTOM)=   -3.203   E(TOP)=   -3.135  1  2   155
             LOCAL ORBITAL
:E2_0002: E( 2)=    0.2966   E(BOTTOM)=    0.069   E(TOP)=    0.524  0  1   125
             APW+lo
:E0_0002: E( 0)=    0.3447
             APW+lo

          ATOMIC SPHERE DEPENDENT PARAMETERS FOR ATOM  Sb1       
:e__0003: OVERALL ENERGY PARAMETER IS    0.3447
          OVERALL BASIS SET ON ATOM IS LAPW
:E2_0003: E( 2)=    0.3447
             APW+lo
:E2_0003: E( 2)=   -1.5039   E(BOTTOM)=   -1.590   E(TOP)=   -1.418  1  2   160
             LOCAL ORBITAL
:E0_0003: E( 0)=    0.7447
             APW+lo
:E0_0003: E( 0)=   -0.6300   E(BOTTOM)=   -0.818   E(TOP)= -200.000  4 -1   143
             LOCAL ORBITAL
:E1_0003: E( 1)=    0.3447
             APW+lo

          ATOMIC SPHERE DEPENDENT PARAMETERS FOR ATOM  Sb2       
:e__0004: OVERALL ENERGY PARAMETER IS    0.3447
          OVERALL BASIS SET ON ATOM IS LAPW
:E2_0004: E( 2)=    0.3447
             APW+lo
:E2_0004: E( 2)=   -1.5039   E(BOTTOM)=   -1.590   E(TOP)=   -1.418  1  2   160
             LOCAL ORBITAL
:E0_0004: E( 0)=    0.7447
             APW+lo
:E0_0004: E( 0)=   -0.6300   E(BOTTOM)=   -0.818   E(TOP)= -200.000  4 -1   143
             LOCAL ORBITAL
:E1_0004: E( 1)=    0.3447
             APW+lo

          ATOMIC SPHERE DEPENDENT PARAMETERS FOR ATOM  Mn3       
:e__0005: OVERALL ENERGY PARAMETER IS    0.3447
          OVERALL BASIS SET ON ATOM IS LAPW
:E1_0005: E( 1)=    0.3447
             APW+lo
:E1_0005: E( 1)=   -3.1563   E(BOTTOM)=   -3.190   E(TOP)=   -3.123  1  2   160
             LOCAL ORBITAL
:E2_0005: E( 2)=    0.3185   E(BOTTOM)=    0.099   E(TOP)=    0.538  0  1   122
             APW+lo
:E0_0005: E( 0)=    0.3447
             APW+lo

          ATOMIC SPHERE DEPENDENT PARAMETERS FOR ATOM  Mn4       
:e__0006: OVERALL ENERGY PARAMETER IS    0.3447
          OVERALL BASIS SET ON ATOM IS LAPW
:E1_0006: E( 1)=    0.3447
             APW+lo
:E1_0006: E( 1)=   -3.1563   E(BOTTOM)=   -3.190   E(TOP)=   -3.123  1  2   160
             LOCAL ORBITAL
:E2_0006: E( 2)=    0.3185   E(BOTTOM)=    0.099   E(TOP)=    0.538  0  1   122
             APW+lo
:E0_0006: E( 0)=    0.3447
             APW+lo

       K=   0.03571   0.03571   0.05556            1
:RKM  : MATRIX SIZE   367LOs:  78  RKM= 6.99  WEIGHT= 8.00  PGR:    
       EIGENVALUES ARE:
:EIG00001:      -3.1645026   -3.1644106   -3.1635648   -3.1615611   -3.1589558
:EIG00006:      -3.1588705   -3.1496852   -3.1487133   -3.1486213   -3.1486208
:EIG00011:      -3.1485977   -3.1485644   -1.4857051   -1.4853724   -1.4846886
:EIG00016:      -1.4846548   -1.4844448   -1.4843600   -1.4843403   -1.4840390
:EIG00021:      -1.4839799   -1.4832743   -0.2988503   -0.1710583    0.0899989
:EIG00026:       0.1796216    0.2024303    0.2046607    0.2246960    0.2488404
:EIG00031:       0.2806547    0.2991031    0.2991432    0.3141740    0.3253460
:EIG00036:       0.3357353    0.3390262    0.3493687    0.3543494    0.3734664
:EIG00041:       0.3790530    0.3857809    0.3879066    0.3971839    0.4139073
:EIG00046:       0.4225739    0.4328216    0.5725944    0.6358480    0.6613170
 
:EIG00051:       0.7074679    0.7619718    0.8553834    0.8986120    0.9040801
:EIG00056:       0.9423879    0.9768027    1.1083891    1.1144957    1.1393080
:EIG00061:       1.1575897    1.2927481    1.3241987    1.3383580    1.4383920
:EIG00066:       1.4804850    1.4928646    1.5104733    1.5641849    1.5656589
:EIG00071:       1.6032667    1.6177868    1.6281661    1.6406151    1.6829982
:EIG00076:       1.7814946    1.8092557    1.8268291    1.9692317    2.0066461
       ********************************************************

:KPT   :      NUMBER OF K-POINTS:   245
:LMAX-WF:   10   Non-Spherical LMAX:   4

          ATOMIC SPHERE DEPENDENT PARAMETERS FOR ATOM  Mn1       
:e__0001: OVERALL ENERGY PARAMETER IS    0.3447
          OVERALL BASIS SET ON ATOM IS LAPW
:E1_0001: E( 1)=    0.3447
             APW+lo
:E1_0001: E( 1)=   -2.8052   E(BOTTOM)=   -2.844   E(TOP)=   -2.766  1  2   193
             LOCAL ORBITAL
:E2_0001: E( 2)=    0.6235   E(BOTTOM)=    0.358   E(TOP)=    0.889  0  1   127
             APW+lo
:E0_0001: E( 0)=    0.3447
             APW+lo

          ATOMIC SPHERE DEPENDENT PARAMETERS FOR ATOM  Mn2       
:e__0002: OVERALL ENERGY PARAMETER IS    0.3447
          OVERALL BASIS SET ON ATOM IS LAPW
:E1_0002: E( 1)=    0.3447
             APW+lo
:E1_0002: E( 1)=   -2.8052   E(BOTTOM)=   -2.844   E(TOP)=   -2.766  1  2   193
             LOCAL ORBITAL
:E2_0002: E( 2)=    0.6235   E(BOTTOM)=    0.358   E(TOP)=    0.889  0  1   127
             APW+lo
:E0_0002: E( 0)=    0.3447
             APW+lo

          ATOMIC SPHERE DEPENDENT PARAMETERS FOR ATOM  Sb1       
:e__0003: OVERALL ENERGY PARAMETER IS    0.3447
          OVERALL BASIS SET ON ATOM IS LAPW
:E2_0003: E( 2)=    0.3447
             APW+lo
:E2_0003: E( 2)=   -1.5046   E(BOTTOM)=   -1.591   E(TOP)=   -1.418  1  2   157
             LOCAL ORBITAL
:E0_0003: E( 0)=    0.7447
             APW+lo
:E0_0003: E( 0)=   -0.6300   E(BOTTOM)=   -0.822   E(TOP)= -200.000  4 -1   146
             LOCAL ORBITAL
:E1_0003: E( 1)=    0.3447
             APW+lo

          ATOMIC SPHERE DEPENDENT PARAMETERS FOR ATOM  Sb2       
:e__0004: OVERALL ENERGY PARAMETER IS    0.3447
          OVERALL BASIS SET ON ATOM IS LAPW
:E2_0004: E( 2)=    0.3447
             APW+lo
:E2_0004: E( 2)=   -1.5046   E(BOTTOM)=   -1.591   E(TOP)=   -1.418  1  2   157
             LOCAL ORBITAL
:E0_0004: E( 0)=    0.7447
             APW+lo
:E0_0004: E( 0)=   -0.6300   E(BOTTOM)=   -0.822   E(TOP)= -200.000  4 -1   146
             LOCAL ORBITAL
:E1_0004: E( 1)=    0.3447
             APW+lo

          ATOMIC SPHERE DEPENDENT PARAMETERS FOR ATOM  Mn3       
:e__0005: OVERALL ENERGY PARAMETER IS    0.3447
          OVERALL BASIS SET ON ATOM IS LAPW
:E1_0005: E( 1)=    0.3447
             APW+lo
:E1_0005: E( 1)=   -2.7904   E(BOTTOM)=   -2.828   E(TOP)=   -2.753  1  2   198
             LOCAL ORBITAL
:E2_0005: E( 2)=    0.6503   E(BOTTOM)=    0.396   E(TOP)=    0.904  0  1   128
             APW+lo
:E0_0005: E( 0)=    0.3447
             APW+lo

          ATOMIC SPHERE DEPENDENT PARAMETERS FOR ATOM  Mn4       
:e__0006: OVERALL ENERGY PARAMETER IS    0.3447
          OVERALL BASIS SET ON ATOM IS LAPW
:E1_0006: E( 1)=    0.3447
             APW+lo
:E1_0006: E( 1)=   -2.7904   E(BOTTOM)=   -2.828   E(TOP)=   -2.753  1  2   198
             LOCAL ORBITAL
:E2_0006: E( 2)=    0.6503   E(BOTTOM)=    0.396   E(TOP)=    0.904  0  1   128
             APW+lo
:E0_0006: E( 0)=    0.3447
             APW+lo

       K=   0.03571   0.03571   0.05556            1
:RKM  : MATRIX SIZE   367LOs:  78  RKM= 6.99  WEIGHT= 8.00  PGR:    
       EIGENVALUES ARE:
:EIG00001:      -2.8004839   -2.8003709   -2.7992491   -2.7966943   -2.7937122
:EIG00006:      -2.7936041   -2.7830999   -2.7818857   -2.7817663   -2.7817636
:EIG00011:      -2.7817265   -2.7816917   -1.4862584   -1.4859083   -1.4851958
:EIG00016:      -1.4851659   -1.4849623   -1.4848789   -1.4848678   -1.4845942
:EIG00021:      -1.4845514   -1.4838399   -0.2655293   -0.1468110    0.1584477
:EIG00026:       0.3623562    0.3950570    0.3988857    0.4121190    0.4243843
:EIG00031:       0.4893777    0.4941334    0.4960734    0.5249137    0.5769485
:EIG00036:       0.5815222    0.5816505    0.6510281    0.6617568    0.6798735
:EIG00041:       0.6802845    0.6886342    0.7003104    0.7035234    0.7217287
:EIG00046:       0.7319692    0.7565708    0.7635664    0.7681202    0.8149962
 
:EIG00051:       0.8248861    0.9341086    1.0187259    1.0235322    1.0418936
:EIG00056:       1.0765444    1.1091959    1.1752318    1.2189536    1.2425624
:EIG00061:       1.2784257    1.3661330    1.3919892    1.3951093    1.5210651
:EIG00066:       1.5426100    1.5673954    1.5688042    1.6380556    1.6393595
:EIG00071:       1.6749583    1.6898969    1.7135183    1.7367289    1.7512162
:EIG00076:       1.8561732    1.9142809    1.9243337    2.0411422    2.0425194
       ********************************************************

:KPT   :      NUMBER OF K-POINTS:   245
:GAP (global)   :    0.0    Ry =     0.0   eV (metal)
:GAP (this spin):    0.0    Ry =     0.0   eV (metal)
         Bandranges (emin - emax) and occupancy:
:BAN00040:  40    0.331181    0.373466  1.00000000
:BAN00041:  41    0.351531    0.381698  1.00000000
:BAN00042:  42    0.354964    0.390365  1.00000000
:BAN00043:  43    0.381850    0.401501  1.00000000
:BAN00044:  44    0.382622    0.414435  1.00000000
:BAN00045:  45    0.391437    0.446029  1.00000000
:BAN00046:  46    0.394188    0.495657  1.00000000
:BAN00047:  47    0.414406    0.606986  0.95805948
:BAN00048:  48    0.422187    0.628378  0.79801076
:BAN00049:  49    0.445779    0.680165  0.38705564
:BAN00050:  50    0.448773    0.709447  0.20438137
:BAN00051:  51    0.604470    0.829911  0.00000000
:BAN00052:  52    0.610543    0.867577  0.00000000
:BAN00053:  53    0.775612    0.901856  0.00000000
:BAN00054:  54    0.781765    0.953733  0.00000000
:BAN00055:  55    0.846797    1.156393  0.00000000
        Energy to separate low and high energystates:    0.01156


:NOE  : NUMBER OF ELECTRONS          =   82.000

:FER  : F E R M I - ENERGY(TETRAH.M.)=   0.5456942707
:GMA  : POTENTIAL AND CHARGE CUT-OFF  12.00 Ry**.5

:POS001: ATOM   -1 X,Y,Z = 0.00000 0.00000 0.00000  MULT= 1  ZZ= 25.000  Mn1       

       LMMAX 16
       LM=   0 0  1 0  2 0  2 2  3 0  3 2  4 0  4 2  4 4  5 0  5 2  5 4  6 0  6 2  6 4  6 6

:CHA001: TOTAL VALENCE CHARGE INSIDE SPHERE   1 =   7.8992    (RMT=  2.5000 )
:PCS001: PARTIAL CHARGES SPHERE =  1 S,P,D,F,PX,PY,PZ,D-Z2,D-X2Y2,D-XY,D-XZ,D-YZ 
:QTL001: 0.2142 3.2414 4.4265 0.0137 1.0794 1.0794 1.0826 0.9007 0.8959 0.8913 0.8693 0.8693
        Q-s-low E-s-low   Q-p-low E-p-low   Q-d-low E-d-low   Q-f-low E-f-low
:EPL001:  0.0509 -0.2289    3.0265 -3.1293    0.0302 -0.2183    0.0014 -0.6311
        Q-s-hi  E-s-hi    Q-p-hi  E-p-hi    Q-d-hi  E-d-hi    Q-f-hi  E-f-hi 
:EPH001:  0.1633  0.1997    0.2149  0.2992    4.3963  0.3185    0.0123  0.3278

                      VXX         VYY         VZZ       UP TO R
:VZZ001:            -0.12602    -0.12602     0.25204       2.500

:POS002: ATOM   -2 X,Y,Z = 0.50000 0.50000 0.00000  MULT= 1  ZZ= 25.000  Mn2       

       LMMAX 16
       LM=   0 0  1 0  2 0  2 2  3 0  3 2  4 0  4 2  4 4  5 0  5 2  5 4  6 0  6 2  6 4  6 6

:CHA002: TOTAL VALENCE CHARGE INSIDE SPHERE   2 =   7.8992    (RMT=  2.5000 )
:PCS002: PARTIAL CHARGES SPHERE =  2 S,P,D,F,PX,PY,PZ,D-Z2,D-X2Y2,D-XY,D-XZ,D-YZ 
:QTL002: 0.2142 3.2414 4.4265 0.0137 1.0794 1.0794 1.0826 0.9007 0.8959 0.8913 0.8693 0.8693
        Q-s-low E-s-low   Q-p-low E-p-low   Q-d-low E-d-low   Q-f-low E-f-low
:EPL002:  0.0509 -0.2289    3.0265 -3.1293    0.0302 -0.2183    0.0014 -0.6311
        Q-s-hi  E-s-hi    Q-p-hi  E-p-hi    Q-d-hi  E-d-hi    Q-f-hi  E-f-hi 
:EPH002:  0.1633  0.1997    0.2149  0.2992    4.3963  0.3185    0.0123  0.3278

                      VXX         VYY         VZZ       UP TO R
:VZZ002:            -0.12602    -0.12602     0.25204       2.500

:POS003: ATOM   -3 X,Y,Z = 0.00000 0.50000 0.28000  MULT= 1  ZZ= 51.000  Sb1       

       LMMAX 16
       LM=   0 0  1 0  2 0  2 2  3 0  3 2  4 0  4 2  4 4  5 0  5 2  5 4  6 0  6 2  6 4  6 6

:CHA003: TOTAL VALENCE CHARGE INSIDE SPHERE   3 =   6.2839    (RMT=  2.5000 )
:PCS003: PARTIAL CHARGES SPHERE =  3 S,P,D,F,PX,PY,PZ,D-Z2,D-X2Y2,D-XY,D-XZ,D-YZ 
:QTL003: 0.6086 0.6495 5.0083 0.0140 0.2117 0.2117 0.2262 1.0018 0.9999 1.0032 1.0017 1.0017
        Q-s-low E-s-low   Q-p-low E-p-low   Q-d-low E-d-low   Q-f-low E-f-low
:EPL003:  0.4963 -0.1822    0.0104 -0.2381    4.9563 -1.4840    0.0003 -1.2451
        Q-s-hi  E-s-hi    Q-p-hi  E-p-hi    Q-d-hi  E-d-hi    Q-f-hi  E-f-hi 
:EPH003:  0.1123  0.3189    0.6391  0.2892    0.0520  0.3139    0.0137  0.3264

                      VXX         VYY         VZZ       UP TO R
:VZZ003:             1.66505     1.66505    -3.33010       2.500

:POS004: ATOM   -4 X,Y,Z = 0.50000 0.00000 0.72000  MULT= 1  ZZ= 51.000  Sb2       

       LMMAX 16
       LM=   0 0  1 0  2 0  2 2  3 0  3 2  4 0  4 2  4 4  5 0  5 2  5 4  6 0  6 2  6 4  6 6

:CHA004: TOTAL VALENCE CHARGE INSIDE SPHERE   4 =   6.2839    (RMT=  2.5000 )
:PCS004: PARTIAL CHARGES SPHERE =  4 S,P,D,F,PX,PY,PZ,D-Z2,D-X2Y2,D-XY,D-XZ,D-YZ 
:QTL004: 0.6086 0.6495 5.0083 0.0140 0.2117 0.2117 0.2262 1.0018 0.9999 1.0032 1.0017 1.0017
        Q-s-low E-s-low   Q-p-low E-p-low   Q-d-low E-d-low   Q-f-low E-f-low
:EPL004:  0.4963 -0.1822    0.0104 -0.2381    4.9563 -1.4840    0.0003 -1.2451
        Q-s-hi  E-s-hi    Q-p-hi  E-p-hi    Q-d-hi  E-d-hi    Q-f-hi  E-f-hi 
:EPH004:  0.1123  0.3189    0.6391  0.2892    0.0520  0.3139    0.0137  0.3264

                      VXX         VYY         VZZ       UP TO R
:VZZ004:             1.66505     1.66505    -3.33010       2.500

:POS005: ATOM   -5 X,Y,Z = 0.00000 0.50000 0.70500  MULT= 1  ZZ= 25.000  Mn3       

       LMMAX 16
       LM=   0 0  1 0  2 0  2 2  3 0  3 2  4 0  4 2  4 4  5 0  5 2  5 4  6 0  6 2  6 4  6 6

:CHA005: TOTAL VALENCE CHARGE INSIDE SPHERE   5 =   7.8735    (RMT=  2.5000 )
:PCS005: PARTIAL CHARGES SPHERE =  5 S,P,D,F,PX,PY,PZ,D-Z2,D-X2Y2,D-XY,D-XZ,D-YZ 
:QTL005: 0.1995 3.1765 4.4861 0.0093 1.0566 1.0566 1.0633 0.8875 0.9086 0.8804 0.9048 0.9048
        Q-s-low E-s-low   Q-p-low E-p-low   Q-d-low E-d-low   Q-f-low E-f-low
:EPL005:  0.0253 -0.2327    3.0116 -3.1317    0.0190 -0.2108    0.0010 -0.5095
        Q-s-hi  E-s-hi    Q-p-hi  E-p-hi    Q-d-hi  E-d-hi    Q-f-hi  E-f-hi 
:EPH005:  0.1742  0.2386    0.1649  0.3209    4.4670  0.3427    0.0083  0.3255

                      VXX         VYY         VZZ       UP TO R
:VZZ005:             0.32984     0.32984    -0.65968       2.500

:POS006: ATOM   -6 X,Y,Z = 0.50000 0.00000 0.29500  MULT= 1  ZZ= 25.000  Mn4       

       LMMAX 16
       LM=   0 0  1 0  2 0  2 2  3 0  3 2  4 0  4 2  4 4  5 0  5 2  5 4  6 0  6 2  6 4  6 6

:CHA006: TOTAL VALENCE CHARGE INSIDE SPHERE   6 =   7.8735    (RMT=  2.5000 )
:PCS006: PARTIAL CHARGES SPHERE =  6 S,P,D,F,PX,PY,PZ,D-Z2,D-X2Y2,D-XY,D-XZ,D-YZ 
:QTL006: 0.1995 3.1765 4.4861 0.0093 1.0566 1.0566 1.0633 0.8875 0.9086 0.8804 0.9048 0.9048
        Q-s-low E-s-low   Q-p-low E-p-low   Q-d-low E-d-low   Q-f-low E-f-low
:EPL006:  0.0253 -0.2327    3.0116 -3.1317    0.0190 -0.2108    0.0010 -0.5095
        Q-s-hi  E-s-hi    Q-p-hi  E-p-hi    Q-d-hi  E-d-hi    Q-f-hi  E-f-hi 
:EPH006:  0.1742  0.2386    0.1649  0.3209    4.4670  0.3427    0.0083  0.3255

                      VXX         VYY         VZZ       UP TO R
:VZZ006:             0.32984     0.32984    -0.65968       2.500

:CHA  : TOTAL VALENCE CHARGE INSIDE UNIT CELL =      48.347507

:SUM  : SUM OF EIGENVALUES =         -45.370026119

:GAP (global)   :    0.0    Ry =     0.0   eV (metal)
:GAP (this spin):    0.0    Ry =     0.0   eV (metal)
         Bandranges (emin - emax) and occupancy:
:BAN00024:  24   -0.209176   -0.109046  1.00000000
:BAN00025:  25    0.131603    0.251920  1.00000000
:BAN00026:  26    0.131636    0.362356  1.00000000
:BAN00027:  27    0.238443    0.395057  1.00000000
:BAN00028:  28    0.274640    0.398886  1.00000000
:BAN00029:  29    0.323531    0.435043  1.00000000
:BAN00030:  30    0.326958    0.443733  1.00000000
:BAN00031:  31    0.411981    0.497426  1.00000000
:BAN00032:  32    0.412323    0.503272  1.00000000
:BAN00033:  33    0.470328    0.538980  1.00000000
:BAN00034:  34    0.477626    0.572551  0.65249274
:BAN00035:  35    0.549673    0.601171  0.00000000
:BAN00036:  36    0.571665    0.610763  0.00000000
:BAN00037:  37    0.581650    0.637469  0.00000000
:BAN00038:  38    0.614330    0.654273  0.00000000
:BAN00039:  39    0.623782    0.671582  0.00000000
        Energy to separate low and high energystates:    0.08160


:NOE  : NUMBER OF ELECTRONS          =   82.000

:FER  : F E R M I - ENERGY(TETRAH.M.)=   0.5456942707
:GMA  : POTENTIAL AND CHARGE CUT-OFF  12.00 Ry**.5

:POS001: ATOM   -1 X,Y,Z = 0.00000 0.00000 0.00000  MULT= 1  ZZ= 25.000  Mn1       

       LMMAX 16
       LM=   0 0  1 0  2 0  2 2  3 0  3 2  4 0  4 2  4 4  5 0  5 2  5 4  6 0  6 2  6 4  6 6

:CHA001: TOTAL VALENCE CHARGE INSIDE SPHERE   1 =   4.4971    (RMT=  2.5000 )
:PCS001: PARTIAL CHARGES SPHERE =  1 S,P,D,F,PX,PY,PZ,D-Z2,D-X2Y2,D-XY,D-XZ,D-YZ 
:QTL001: 0.1877 3.2150 1.0828 0.0098 1.0733 1.0733 1.0685 0.1924 0.1360 0.3081 0.2232 0.2232
        Q-s-low E-s-low   Q-p-low E-p-low   Q-d-low E-d-low   Q-f-low E-f-low
:EPL001:  0.0387 -0.2033    3.0206 -2.7720    0.0178 -0.2313    0.0015 -0.5676
        Q-s-hi  E-s-hi    Q-p-hi  E-p-hi    Q-d-hi  E-d-hi    Q-f-hi  E-f-hi 
:EPH001:  0.1490  0.2590    0.1945  0.3666    1.0650  0.4559    0.0083  0.4081

                      VXX         VYY         VZZ       UP TO R
:VZZ001:            -0.55711    -0.55711     1.11422       2.500

:POS002: ATOM   -2 X,Y,Z = 0.50000 0.50000 0.00000  MULT= 1  ZZ= 25.000  Mn2       

       LMMAX 16
       LM=   0 0  1 0  2 0  2 2  3 0  3 2  4 0  4 2  4 4  5 0  5 2  5 4  6 0  6 2  6 4  6 6

:CHA002: TOTAL VALENCE CHARGE INSIDE SPHERE   2 =   4.4971    (RMT=  2.5000 )
:PCS002: PARTIAL CHARGES SPHERE =  2 S,P,D,F,PX,PY,PZ,D-Z2,D-X2Y2,D-XY,D-XZ,D-YZ 
:QTL002: 0.1877 3.2150 1.0828 0.0098 1.0733 1.0733 1.0685 0.1924 0.1360 0.3081 0.2232 0.2232
        Q-s-low E-s-low   Q-p-low E-p-low   Q-d-low E-d-low   Q-f-low E-f-low
:EPL002:  0.0387 -0.2033    3.0206 -2.7720    0.0178 -0.2313    0.0015 -0.5676
        Q-s-hi  E-s-hi    Q-p-hi  E-p-hi    Q-d-hi  E-d-hi    Q-f-hi  E-f-hi 
:EPH002:  0.1490  0.2590    0.1945  0.3666    1.0650  0.4559    0.0083  0.4081

                      VXX         VYY         VZZ       UP TO R
:VZZ002:            -0.55711    -0.55711     1.11422       2.500

:POS003: ATOM   -3 X,Y,Z = 0.00000 0.50000 0.28000  MULT= 1  ZZ= 51.000  Sb1       

       LMMAX 16
       LM=   0 0  1 0  2 0  2 2  3 0  3 2  4 0  4 2  4 4  5 0  5 2  5 4  6 0  6 2  6 4  6 6

:CHA003: TOTAL VALENCE CHARGE INSIDE SPHERE   3 =   6.4060    (RMT=  2.5000 )
:PCS003: PARTIAL CHARGES SPHERE =  3 S,P,D,F,PX,PY,PZ,D-Z2,D-X2Y2,D-XY,D-XZ,D-YZ 
:QTL003: 0.6008 0.7970 4.9989 0.0081 0.2605 0.2605 0.2760 1.0011 0.9967 1.0016 0.9998 0.9998
        Q-s-low E-s-low   Q-p-low E-p-low   Q-d-low E-d-low   Q-f-low E-f-low
:EPL003:  0.5421 -0.1572    0.0088 -0.2335    4.9567 -1.4846    0.0003 -1.3871
        Q-s-hi  E-s-hi    Q-p-hi  E-p-hi    Q-d-hi  E-d-hi    Q-f-hi  E-f-hi 
:EPH003:  0.0587  0.2732    0.7882  0.3324    0.0422  0.4289    0.0079  0.4653

                      VXX         VYY         VZZ       UP TO R
:VZZ003:             1.92886     1.92886    -3.85771       2.500

:POS004: ATOM   -4 X,Y,Z = 0.50000 0.00000 0.72000  MULT= 1  ZZ= 51.000  Sb2       

       LMMAX 16
       LM=   0 0  1 0  2 0  2 2  3 0  3 2  4 0  4 2  4 4  5 0  5 2  5 4  6 0  6 2  6 4  6 6

:CHA004: TOTAL VALENCE CHARGE INSIDE SPHERE   4 =   6.4060    (RMT=  2.5000 )
:PCS004: PARTIAL CHARGES SPHERE =  4 S,P,D,F,PX,PY,PZ,D-Z2,D-X2Y2,D-XY,D-XZ,D-YZ 
:QTL004: 0.6008 0.7970 4.9989 0.0081 0.2605 0.2605 0.2760 1.0011 0.9967 1.0016 0.9998 0.9998
        Q-s-low E-s-low   Q-p-low E-p-low   Q-d-low E-d-low   Q-f-low E-f-low
:EPL004:  0.5421 -0.1572    0.0088 -0.2335    4.9567 -1.4846    0.0003 -1.3871
        Q-s-hi  E-s-hi    Q-p-hi  E-p-hi    Q-d-hi  E-d-hi    Q-f-hi  E-f-hi 
:EPH004:  0.0587  0.2732    0.7882  0.3324    0.0422  0.4289    0.0079  0.4653

                      VXX         VYY         VZZ       UP TO R
:VZZ004:             1.92886     1.92886    -3.85771       2.500

:POS005: ATOM   -5 X,Y,Z = 0.00000 0.50000 0.70500  MULT= 1  ZZ= 25.000  Mn3       

       LMMAX 16
       LM=   0 0  1 0  2 0  2 2  3 0  3 2  4 0  4 2  4 4  5 0  5 2  5 4  6 0  6 2  6 4  6 6

:CHA005: TOTAL VALENCE CHARGE INSIDE SPHERE   5 =   3.8983    (RMT=  2.5000 )
:PCS005: PARTIAL CHARGES SPHERE =  5 S,P,D,F,PX,PY,PZ,D-Z2,D-X2Y2,D-XY,D-XZ,D-YZ 
:QTL005: 0.1668 3.1525 0.5702 0.0074 1.0456 1.0456 1.0613 0.1465 0.0709 0.1167 0.1180 0.1180
        Q-s-low E-s-low   Q-p-low E-p-low   Q-d-low E-d-low   Q-f-low E-f-low
:EPL005:  0.0204 -0.2094    3.0087 -2.7682    0.0115 -0.2183    0.0010 -0.4740
        Q-s-hi  E-s-hi    Q-p-hi  E-p-hi    Q-d-hi  E-d-hi    Q-f-hi  E-f-hi 
:EPH005:  0.1464  0.2936    0.1438  0.3663    0.5587  0.4473    0.0064  0.3991

                      VXX         VYY         VZZ       UP TO R
:VZZ005:             1.47499     1.47499    -2.94998       2.500

:POS006: ATOM   -6 X,Y,Z = 0.50000 0.00000 0.29500  MULT= 1  ZZ= 25.000  Mn4       

       LMMAX 16
       LM=   0 0  1 0  2 0  2 2  3 0  3 2  4 0  4 2  4 4  5 0  5 2  5 4  6 0  6 2  6 4  6 6

:CHA006: TOTAL VALENCE CHARGE INSIDE SPHERE   6 =   3.8983    (RMT=  2.5000 )
:PCS006: PARTIAL CHARGES SPHERE =  6 S,P,D,F,PX,PY,PZ,D-Z2,D-X2Y2,D-XY,D-XZ,D-YZ 
:QTL006: 0.1668 3.1525 0.5702 0.0074 1.0456 1.0456 1.0613 0.1465 0.0709 0.1167 0.1180 0.1180
        Q-s-low E-s-low   Q-p-low E-p-low   Q-d-low E-d-low   Q-f-low E-f-low
[...]
:2S 001: 2S                 -53.667314844 Ry
:2PP001: 2P*                -45.808757973 Ry
:2P 001: 2P                 -45.043021766 Ry
:3S 001: 3S                  -5.385712442 Ry

        2.ATOM      Mn2                   5 CORE STATES
       CORE-FORCE in mRy/a.u. = |F|      Fx             Fy             Fz
:FCO002:   2.ATOM      1.126058773064      0.000000000000      0.000000000000     -1.126058773064

:1S 002: 1S                -471.436671582 Ry
:2S 002: 2S                 -53.668052774 Ry
:2PP002: 2P*                -45.809501649 Ry
:2P 002: 2P                 -45.043764894 Ry
:3S 002: 3S                  -5.386243150 Ry

        3.ATOM      Sb1                  12 CORE STATES
       CORE-FORCE in mRy/a.u. = |F|      Fx             Fy             Fz
:FCO003:   3.ATOM    542.142999039784      0.000000000000      0.000000000000   -542.142999039784

:1S 003: 1S               -2225.057860367 Ry
:2S 003: 2S                -337.753228204 Ry
:2PP003: 2P*               -315.914686943 Ry
:2P 003: 2P                -297.406322819 Ry
:3S 003: 3S                 -65.527980821 Ry
:3PP003: 3P*                -56.604094840 Ry
:3P 003: 3P                 -53.188885945 Ry
:3DD003: 3D*                -37.437666600 Ry
:3D 003: 3D                 -36.727942008 Ry
:4S 003: 4S                 -10.071774443 Ry
:4PP003: 4P*                 -7.055153490 Ry
:4P 003: 4P                  -6.424305673 Ry

        4.ATOM      Sb2                  12 CORE STATES
       CORE-FORCE in mRy/a.u. = |F|      Fx             Fy             Fz
:FCO004:   4.ATOM    543.421068147042      0.000000000000      0.000000000000    543.421068147042

:1S 004: 1S               -2225.058129667 Ry
:2S 004: 2S                -337.753495998 Ry
:2PP004: 2P*               -315.914955019 Ry
:2P 004: 2P                -297.406590810 Ry
:3S 004: 3S                 -65.528245624 Ry
:3PP004: 3P*                -56.604359763 Ry
:3P 004: 3P                 -53.189150729 Ry
:3DD004: 3D*                -37.437931762 Ry
:3D 004: 3D                 -36.728207123 Ry
:4S 004: 4S                 -10.072034103 Ry
:4PP004: 4P*                 -7.055412717 Ry
:4P 004: 4P                  -6.424564597 Ry

        5.ATOM      Mn3                   5 CORE STATES
       CORE-FORCE in mRy/a.u. = |F|      Fx             Fy             Fz
:FCO005:   5.ATOM    199.931506415917      0.000000000000      0.000000000000   -199.931506415917

:1S 005: 1S                -471.454650006 Ry
:2S 005: 2S                 -53.690904771 Ry
:2PP005: 2P*                -45.830225117 Ry
:2P 005: 2P                 -45.064668008 Ry
:3S 005: 3S                  -5.433662607 Ry

        6.ATOM      Mn4                   5 CORE STATES
       CORE-FORCE in mRy/a.u. = |F|      Fx             Fy             Fz
:FCO006:   6.ATOM    200.389300630196      0.000000000000      0.000000000000    200.389300630196

:1S 006: 1S                -471.452802074 Ry
:2S 006: 2S                 -53.689117579 Ry
:2PP006: 2P*                -45.828424750 Ry
:2P 006: 2P                 -45.062868883 Ry
:3S 006: 3S                  -5.432308619 Ry

        1.ATOM      Mn1                   5 CORE STATES
       CORE-FORCE in mRy/a.u. = |F|      Fx             Fy             Fz
:FCO001:   1.ATOM      1.113345607505      0.000000000000      0.000000000000     -1.113345607505

:1S 001: 1S                -471.436709294 Ry
:2S 001: 2S                 -53.571488229 Ry
:2PP001: 2P*                -45.737264031 Ry
:2P 001: 2P                 -44.969547841 Ry
:3S 001: 3S                  -5.150522833 Ry

        2.ATOM      Mn2                   5 CORE STATES
       CORE-FORCE in mRy/a.u. = |F|      Fx             Fy             Fz
:FCO002:   2.ATOM      1.125773919298      0.000000000000      0.000000000000     -1.125773919298

:1S 002: 1S                -471.437473227 Ry
:2S 002: 2S                 -53.572216581 Ry
:2PP002: 2P*                -45.738000517 Ry
:2P 002: 2P                 -44.970283584 Ry
:3S 002: 3S                  -5.151024544 Ry

        3.ATOM      Sb1                  12 CORE STATES
       CORE-FORCE in mRy/a.u. = |F|      Fx             Fy             Fz
:FCO003:   3.ATOM    544.341649523900      0.000000000000      0.000000000000   -544.341649523900

:1S 003: 1S               -2225.058279006 Ry
:2S 003: 2S                -337.753253817 Ry
:2PP003: 2P*               -315.914956315 Ry
:2P 003: 2P                -297.406554464 Ry
:3S 003: 3S                 -65.528276838 Ry
:3PP003: 3P*                -56.604439530 Ry
:3P 003: 3P                 -53.189229243 Ry
:3DD003: 3D*                -37.437942980 Ry
:3D 003: 3D                 -36.728222314 Ry
:4S 003: 4S                 -10.072319305 Ry
:4PP003: 4P*                 -7.055741809 Ry
:4P 003: 4P                  -6.424909946 Ry

        4.ATOM      Sb2                  12 CORE STATES
       CORE-FORCE in mRy/a.u. = |F|      Fx             Fy             Fz
:FCO004:   4.ATOM    545.626592314506      0.000000000000      0.000000000000    545.626592314506

:1S 004: 1S               -2225.058548414 Ry
:2S 004: 2S                -337.753521617 Ry
:2PP004: 2P*               -315.915224448 Ry
:2P 004: 2P                -297.406822503 Ry
:3S 004: 3S                 -65.528541715 Ry
:3PP004: 3P*                -56.604704535 Ry
:3P 004: 3P                 -53.189494110 Ry
:3DD004: 3D*                -37.438208204 Ry
:3D 004: 3D                 -36.728487492 Ry
:4S 004: 4S                 -10.072579093 Ry
:4PP004: 4P*                 -7.056001184 Ry
:4P 004: 4P                  -6.425169025 Ry

        5.ATOM      Mn3                   5 CORE STATES
       CORE-FORCE in mRy/a.u. = |F|      Fx             Fy             Fz
:FCO005:   5.ATOM    204.717007775391      0.000000000000      0.000000000000   -204.717007775391

:1S 005: 1S                -471.455385530 Ry
:2S 005: 2S                 -53.574146981 Ry
:2PP005: 2P*                -45.743020103 Ry
:2P 005: 2P                 -44.975055561 Ry
:3S 005: 3S                  -5.144857361 Ry

        6.ATOM      Mn4                   5 CORE STATES
       CORE-FORCE in mRy/a.u. = |F|      Fx             Fy             Fz
:FCO006:   6.ATOM    205.173694219400      0.000000000000      0.000000000000    205.173694219400

:1S 006: 1S                -471.453537582 Ry
:2S 006: 2S                 -53.572370775 Ry
:2PP006: 2P*                -45.741227898 Ry
:2P 006: 2P                 -44.973264825 Ry
:3S 006: 3S                  -5.143544718 Ry
:CINT001 Core Integral Atom   1 Up    5.999554 Dn   5.999498 Total  11.999051
:CINT002 Core Integral Atom   2 Up    5.999554 Dn   5.999498 Total  11.999052
:CINT003 Core Integral Atom   3 Up   17.999331 Dn  17.999324 Total  35.998656
:CINT004 Core Integral Atom   4 Up   17.999331 Dn  17.999324 Total  35.998656
:CINT005 Core Integral Atom   5 Up    5.999565 Dn   5.999505 Total  11.999070
:CINT006 Core Integral Atom   6 Up    5.999565 Dn   5.999505 Total  11.999070

       DENSITY AT NUCLEUS
        JATOM        VALENCE       SEMI-CORE          CORE           TOTAL
:RTO001:   1        4.790136        0.000000    13330.281076    13335.071213
:RTO002:   2        4.791986        0.000000    13330.285804    13335.077790
:RTO003:   3       93.345428        0.000000   229674.227849   229767.573276
:RTO004:   4       93.357333        0.000000   229674.228456   229767.585788
:RTO005:   5        4.997354        0.000000    13330.187104    13335.184458
:RTO006:   6        4.991626        0.000000    13330.177305    13335.168930

       HYPERFINE FIELDS FOR THOMSON RADIUS
:HFF001:           97.399           0.000        -356.493        -259.094 (KGAUSS)
:HFF002:           97.435           0.000        -356.555        -259.120 (KGAUSS)
:HFF003:          281.350           0.000          -1.761         279.589 (KGAUSS)
:HFF004:          282.694           0.000          -1.762         280.932 (KGAUSS)
:HFF005:          250.260           0.000        -445.866        -195.606 (KGAUSS)
:HFF006:          249.903           0.000        -445.758        -195.855 (KGAUSS)
     
       CHARGES OF NEW CHARGE DENSITY
:NTO   : INTERSTITIAL     UP =     4.285633 DN =     4.099772 TOT =     8.385405
:NPC   : PW Pseudocharge  UP =     8.578201 DN =     7.296056 TOT =    15.874257
:NTO001: CHARGE SPHERE  1 UP =    13.527189 DN =    10.552098 TOT =    24.079287
:NTO002: CHARGE SPHERE  2 UP =    13.529925 DN =    10.556337 TOT =    24.086262
:NTO003: CHARGE SPHERE  3 UP =    24.364966 DN =    24.472936 TOT =    48.837902
:NTO004: CHARGE SPHERE  4 UP =    24.365411 DN =    24.473096 TOT =    48.838506
:NTO005: CHARGE SPHERE  5 UP =    13.799828 DN =    10.089237 TOT =    23.889065
:NTO006: CHARGE SPHERE  6 UP =    13.796282 DN =    10.080803 TOT =    23.877085

:NEC01: NUCLEAR AND ELECTRONIC CHARGE    202.00000   201.99351
     
       CHARGES OF OLD CHARGE DENSITY
:OTO   : INTERSTITIAL     UP =     4.292950 DN =     4.097877 TOT =     8.390827
:OPC   : PW Pseudocharge  UP =     8.594701 DN =     7.299548 TOT =    15.894248
:OTO001: CHARGE SPHERE  1 UP =    13.533879 DN =    10.551669 TOT =    24.085548
:OTO002: CHARGE SPHERE  2 UP =    13.533849 DN =    10.551280 TOT =    24.085129
:OTO003: CHARGE SPHERE  3 UP =    24.365145 DN =    24.471178 TOT =    48.836323
:OTO004: CHARGE SPHERE  4 UP =    24.365115 DN =    24.471167 TOT =    48.836282
:OTO005: CHARGE SPHERE  5 UP =    13.797520 DN =    10.084983 TOT =    23.882504
:OTO006: CHARGE SPHERE  6 UP =    13.797721 DN =    10.085666 TOT =    23.883387

:NEC02: NUCLEAR AND ELECTRONIC CHARGE    202.00000   202.00000
     
       CONVERGENCE TEST
:DTO001: DIFFERENCE SPHERE  1 UP =  0.0058238 DN =  0.0006214 TOT =  0.0064452
:DTO002: DIFFERENCE SPHERE  2 UP =  0.0025136 DN =  0.0044001 TOT =  0.0069137
:DTO003: DIFFERENCE SPHERE  3 UP =  0.0025164 DN =  0.0025279 TOT =  0.0050442
:DTO004: DIFFERENCE SPHERE  4 UP =  0.0024242 DN =  0.0025050 TOT =  0.0049292
:DTO005: DIFFERENCE SPHERE  5 UP =  0.0042005 DN =  0.0038996 TOT =  0.0081000
:DTO006: DIFFERENCE SPHERE  6 UP =  0.0009654 DN =  0.0042597 TOT =  0.0052251

:DIS  :  CHARGE DISTANCE       ( 0.0058238 for atom    1 spin 1)      0.0122191
 PW Mixed is          661
 
******************************************************
* MULTISECANT MIXING VER9 RELEASE 10.4.0              *
* Standard Mode with controls                        *
* Fixed density scale                                *
* Regularization       1.000E-04                     *
* Trust Upper Limit    5.000E+00                     *
* Max Number of Memory Steps    8                    *
******************************************************
 
:PWTMP   3.4441E+02  7.5000E+02  7.3711E+02
:PLANE:  PW TOTAL      3.4813 DISTAN   5.39E-03  1.55E-01 %
:CHARG:  CLM/ATOM    134.0095 DISTAN   2.29E-03  1.71E-03 %
 
Step History
        DMIX         DMIXT        Red     Pred      Trust     Lambda    MagRel    MagAbs     Beta
  6   2.4518E-01   2.4518E-01  1.98E-01  2.67E-01  2.33E+00  3.71E-01  1.11E+00  1.01E+00  1.00E+00
  7   1.7968E-01   1.7968E-01  8.18E-01  9.48E-01  5.16E+00  1.00E+00  1.73E-01  3.14E-02  1.00E+00
  8   3.4271E-01   3.4271E-01  7.33E-01  5.78E-01  9.63E+00  6.21E-01  5.89E-01  8.71E-02  1.00E+00
  9   3.5000E-01   3.5000E-01  6.49E-01  3.10E-01  9.06E+00  6.54E-01  5.82E-01  6.31E-02  1.00E+00
 10   3.5000E-01   3.5000E-01  6.81E-01  3.25E-01  9.11E+00  6.29E-01  6.35E-01  4.47E-02  1.00E+00
 11   3.5000E-01   3.5000E-01  1.47E+00  4.05E-01  9.01E+00  1.00E+00  7.19E-01  3.45E-02  1.00E+00
 12   2.4691E-01   2.4691E-01  6.12E-01  2.30E-01  5.28E+00  4.76E-01  7.02E-02  4.94E-03  1.00E+00
 13   2.8803E-01   2.8803E-01  5.12E-01  2.35E-01  4.12E+00  4.10E-01  3.75E-01  1.61E-02  1.00E+00
 14   1.4584E-01   1.4584E-01 -1.00E+00  5.74E-01  5.38E+00  1.00E+00  1.64E+00  3.62E-02  1.00E+00
:JACOBIANS    4.795E-01   2.103E+00
  
:NORMS:  1/Froebius, Min, Max, Used   0.1626E+01  0.5959E+00  0.2058E+01  0.2036E+01
:INFO :  Number of Memory Steps    8 Skipping    5
:INFO :  SLambda=    0.1910340804  Max    0.1910340804
:PREDicted Charge, CTotal, PW Trust    1.446E-03   6.737E-04   2.943E-03
:PREDicted DMix, Beta, BLim   1.2385E-01  1.1765E+00  3.9804E+00

Eigenvalues, unscaled except for SY+YY
   #     SY Real        SY Imag          SS             YY         SY+YY Real      SY+YY Imag
   1   7.510204E+00   0.000000E+00   2.034868E+01   4.909234E+00   6.286059E+00   0.000000E+00
   2   6.568617E-01   0.000000E+00   6.688969E-01   1.421529E+00   1.570355E+00   0.000000E+00
   3   1.166671E-01   0.000000E+00   1.069414E-01   7.023044E-01   7.215319E-01   0.000000E+00
   4   2.923011E-03   0.000000E+00   1.291638E-02   5.482286E-01   5.746300E-01   0.000000E+00
   5   5.510691E-03   0.000000E+00   4.750591E-03   3.015100E-01   9.930690E-02   0.000000E+00
   6   4.064463E-02   2.164577E-03   2.764873E-03   8.258402E-02   6.880689E-03   0.000000E+00
   7   4.064463E-02  -2.164577E-03   1.417595E-03   2.826874E-02   3.032245E-02   0.000000E+00
   8   4.873388E-02   0.000000E+00   6.025608E-04   6.341001E-03   3.198397E-01   0.000000E+00
 
:INFO :  Singular value  6.290E+00 Weight  1.000E+00 Projection  1.064E-03
:INFO :  Singular value  1.570E+00 Weight  1.000E+00 Projection -2.665E-03
:INFO :  Singular value  7.215E-01 Weight  1.000E+00 Projection -3.354E-04
:INFO :  Singular value  5.747E-01 Weight  1.000E+00 Projection  4.564E-03
:INFO :  Singular value  3.198E-01 Weight  1.000E+00 Projection -6.991E-03
:INFO :  Singular value  9.930E-02 Weight  1.000E+00 Projection  1.198E-02
:INFO :  Singular value  3.032E-02 Weight  9.997E-01 Projection -2.635E-02
:INFO :  Singular value  6.880E-03 Weight  9.949E-01 Projection  5.786E-02
:RANK :  ACTIVE   7.99/8  =  99.93 % ; YY RANK   7.99/8  =  99.92 %
 
:BLIM :  VZERO Control Off
:TRUST:  Step 7.17E+00  Charge 2.41E-02 (e) CTO  6.32E-02 (e) PW  1.44E-01 (e)
:DIRM :  MEMORY  8/8  SCALE   1.000 RED  0.64 PRED  0.57 NEXT  0.73 
:TRAVE:  Charge 1.81E-03 (e) CTO  1.43E-03 (e) PW  3.73E-03 (e)
:DIRP :  |MSR1|= 6.194E-04 |PRATT|= 2.695E-03 ANGLE=  60.4 DEGREES
:DIRQ :  |MSR1|= 7.217E-03 |PRATT|= 1.374E-02 ANGLE=  44.3 DEGREES
:DIRT :  |MSR1|= 7.243E-03 |PRATT|= 1.401E-02 ANGLE=  45.0 DEGREES
:MIX  :   MSD1   REGULARIZATION:  4.91E-04 GREED: 0.17102  Newton 1.00  0.5172                
     
       CHARGES OF MIXED CHARGE DENSITY
:CTO   : INTERSTITIAL     UP =     4.292350 DN =     4.098743 TOT =     8.391093
:CPC   : PW Pseudocharge  UP =     8.594418 DN =     7.301606 TOT =    15.896024
:CTO001: CHARGE SPHERE  1 UP =    13.530436 DN =    10.554218 TOT =    24.084654
:CTO002: CHARGE SPHERE  2 UP =    13.530561 DN =    10.554074 TOT =    24.084635
:CTO003: CHARGE SPHERE  3 UP =    24.365224 DN =    24.471480 TOT =    48.836705
:CTO004: CHARGE SPHERE  4 UP =    24.365234 DN =    24.471484 TOT =    48.836718
:CTO005: CHARGE SPHERE  5 UP =    13.798401 DN =    10.084807 TOT =    23.883208
:CTO006: CHARGE SPHERE  6 UP =    13.798278 DN =    10.084709 TOT =    23.882987

       SPIN MAGNETIC MOMENTS OF MIXED CHARGE DENSITY
:MMINT:  MAGNETIC MOMENT IN INTERSTITIAL  =    0.19361
:MMI001: MAGNETIC MOMENT IN SPHERE   1    =    2.97622
:MMI002: MAGNETIC MOMENT IN SPHERE   2    =    2.97649
:MMI003: MAGNETIC MOMENT IN SPHERE   3    =   -0.10626
:MMI004: MAGNETIC MOMENT IN SPHERE   4    =   -0.10625
:MMI005: MAGNETIC MOMENT IN SPHERE   5    =    3.71359
:MMI006: MAGNETIC MOMENT IN SPHERE   6    =    3.71357
:MMTOT:  SPIN MAGNETIC MOMENT IN CELL     =   13.36097

:NEC03: NUCLEAR AND ELECTRONIC CHARGE    202.00000   202.00000

PW CHANGE     H    K    L             Current                    Change               Residue
:PUP001:      0    0    0  1.74829029E-02 0.00000000E+00 -1.198E-06  0.000E+00 -1.881E-05  0.000E+00
:PUP002:      0    0   -1  1.07910229E-03-3.20863786E-08  5.965E-07 -1.302E-07 -8.849E-06 -1.537E-06
:PUP003:      0    0    1  1.07910229E-03 3.20863786E-08  5.965E-07  1.302E-07 -8.849E-06  1.537E-06
:PUP004:     -1    0    0 -2.78387615E-08 0.00000000E+00 -6.345E-08  0.000E+00 -7.665E-07  0.000E+00
:PUP005:      0   -1    0  5.07269027E-09 0.00000000E+00  5.501E-08  0.000E+00  6.450E-07  0.000E+00
:PUP006:     -1    0   -1 -2.13145756E-08 3.28782398E-03  3.225E-10  8.850E-07 -3.837E-08  8.626E-06
:PUP007:     -1    0    1 -2.13145756E-08-3.28782398E-03  3.225E-10 -8.850E-07 -3.837E-08 -8.626E-06
:PUP008:      0   -1   -1 -2.46412673E-08-3.28782488E-03 -2.305E-08 -8.849E-07 -3.253E-07 -8.625E-06
:PUP009:      0   -1    1 -2.46412673E-08 3.28782488E-03 -2.305E-08  8.849E-07 -3.253E-07  8.625E-06
:PUP010:      0    0   -2 -2.34433924E-03-1.93449662E-09 -1.194E-06 -1.600E-08 -6.481E-06 -1.898E-07
:PUP011:      0    0    2 -2.34433924E-03 1.93449662E-09 -1.194E-06  1.600E-08 -6.481E-06  1.898E-07
:PUP012:     -1   -1    0 -8.01182426E-03 0.00000000E+00 -2.197E-06  0.000E+00  5.842E-06  0.000E+00
  
:PDN001:      0    0    0  1.54663457E-02 0.00000000E+00  3.968E-06  0.000E+00  9.793E-06  0.000E+00
:PDN002:      0    0   -1  8.77339613E-04-8.18196310E-08  3.000E-06 -3.942E-07  2.822E-06 -4.616E-06
:PDN003:      0    0    1  8.77339613E-04 8.18196310E-08  3.000E-06  3.942E-07  2.822E-06  4.616E-06
:PDN004:     -1    0    0  1.06785589E-07 0.00000000E+00  2.652E-07  0.000E+00  2.252E-06  0.000E+00
:PDN005:      0   -1    0 -3.89930850E-08 0.00000000E+00 -5.009E-07  0.000E+00 -6.671E-06  0.000E+00
:PDN006:     -1    0   -1  4.82148747E-08 4.83879501E-03 -8.445E-08  2.164E-06 -1.572E-06  8.086E-06
:PDN007:     -1    0    1  4.82148747E-08-4.83879501E-03 -8.445E-08 -2.164E-06 -1.572E-06 -8.086E-06
:PDN008:      0   -1   -1  3.27093294E-08-4.83879206E-03 -7.179E-08 -2.164E-06 -1.436E-06 -8.088E-06
:PDN009:      0   -1    1  3.27093294E-08 4.83879206E-03 -7.179E-08  2.164E-06 -1.436E-06  8.088E-06
:PDN010:      0    0   -2 -2.43213746E-03-1.10202826E-08  1.160E-07 -4.657E-09 -3.135E-06 -5.735E-08
:PDN011:      0    0    2 -2.43213746E-03 1.10202826E-08  1.160E-07  4.657E-09 -3.135E-06  5.735E-08
:PDN012:     -1   -1    0 -8.30586617E-03 0.00000000E+00  3.289E-06  0.000E+00 -1.913E-06  0.000E+00

:ENE  : ********** TOTAL ENERGY IN Ry =       -35203.68289168

       TOTAL FORCE IN mRy/a.u. = |F|     Fx             Fy             Fz     with/without FOR in case.in2
:FOR001:   1.ATOM          1.241          0.000          0.000          1.241 partial forces
:FOR002:   2.ATOM          1.246          0.000          0.000          1.246 partial forces
:FOR003:   3.ATOM          7.263          0.000          0.000          7.263 partial forces
:FOR004:   4.ATOM          7.865          0.000          0.000         -7.865 partial forces
:FOR005:   5.ATOM         92.447          0.000          0.000         92.447 partial forces
:FOR006:   6.ATOM         93.042          0.000          0.000        -93.042 partial forces
       TOTAL FORCE WITH RESPECT TO GLOBAL CARTESIAN COORDINATES:
:FCA001:   1.ATOM                         0.000          0.000          1.241 partial forces
:FCA002:   2.ATOM                         0.000          0.000          1.246 partial forces
:FCA003:   3.ATOM                         0.000          0.000          7.263 partial forces
:FCA004:   4.ATOM                         0.000          0.000         -7.865 partial forces
:FCA005:   5.ATOM                         0.000          0.000         92.447 partial forces
:FCA006:   6.ATOM                         0.000          0.000        -93.042 partial forces
       TOTAL FORCE WITH RESPECT TO THE GLOBAL COORDINATE SYSTEM:
:FGL001:   1.ATOM                 0.000000000     0.000000000     1.240889389 partial forces
:FGL002:   2.ATOM                 0.000000000     0.000000000     1.246140353 partial forces
:FGL003:   3.ATOM                 0.000000000     0.000000000     7.263046406 partial forces
:FGL004:   4.ATOM                 0.000000000     0.000000000    -7.865047256 partial forces
:FGL005:   5.ATOM                 0.000000000     0.000000000    92.447224431 partial forces
:FGL006:   6.ATOM                 0.000000000     0.000000000   -93.041914111 partial forces
