
:LABEL1: Calculations in /home/cmueller/wien/FZU/src/trial/Mn2Sb/FMAG/uunnuu/distortminus5per
:LABEL2: on cv036 at Sun Apr 14 08:33:33 PM CEST 2024
:LABEL3: using WIEN2k_19.1 (Release 25/6/2019) in /home/cmueller/WIENROOT
:LABEL4: using the command: runsp_lapw -i 100 -ec 0.0002
 Flat Integration
 New Mode for Coulomb Integral
 Consistent 3/8+Simpson combinations
 Extension of core to zero
 LDM version in phi
 Fifth-order quadrature in outwin


            ---------
:ITE001:  1. ITERATION
            ---------

:NATO :    6 INDEPENDENT AND    6 TOTAL ATOMS IN UNITCELL
       SUBSTANCE: Mn2Sb (according to Wijngaard et al. '92)                   

       LATTICE                      = P   
:POT  : POTENTIAL OPTION EX_PBE EC_PBE VX_PBE VC_PBE
:LAT  : LATTICE CONSTANTS=  7.86420  7.86420 11.91849    1.571    1.571    1.571
:VOL  : UNIT CELL VOLUME =     737.10666
       MODE OF CALCULATION IS       = RELA
       SPINPOLARIZED CALCULATION
:IFFT  : FFT-parameters:   64   64   96 Factor: 2.00


   CONVERGENCE PARAMETER FOR PSEUDOCHARGE: NCON=  9
   MAXIMAL VALUE OF RMT(JATOM)*ABSK(NKK) : RK  =29.98999


:VKCOUL :  VK-COUL convergence: 0.424E-07
       ATOMNUMBER=  1 Mn1        VCOUL-ZERO =  0.45871E+00
:EFG001:                        EFG         =    -0.00356   *10**21  V / m**2
                               V20  TOT/SRF=    -0.00308     0.00123
                               V22  TOT/SRF=     0.00000     0.00000
                               V22M TOT/SRF=     0.00000     0.00000
                               V21  TOT/SRF=     0.00000     0.00000
                               V21M TOT/SRF=     0.00000     0.00000

              0.00178    0.00000    0.00000        0.00178    0.00000    0.00000
              0.00000    0.00178    0.00000        0.00000    0.00178    0.00000
              0.00000    0.00000   -0.00356        0.00000    0.00000   -0.00356

         MAIN DIRECTIONS OF THE EFG   1.0000  0.0000  0.0000
                                      0.0000  1.0000  0.0000
                                      0.0000  0.0000  1.0000
:ANG001:  ANGLE WITH OLD X-AXIS =         0.0

:ETA001:                         ASYMM. ETA =     0.00000


       ATOMNUMBER=  2 Mn2        VCOUL-ZERO =  0.45871E+00
:EFG002:                        EFG         =    -0.00356   *10**21  V / m**2
                               V20  TOT/SRF=    -0.00308     0.00123
                               V22  TOT/SRF=     0.00000    -0.00000
                               V22M TOT/SRF=     0.00000     0.00000
                               V21  TOT/SRF=     0.00000     0.00000
                               V21M TOT/SRF=     0.00000     0.00000

              0.00178    0.00000    0.00000        0.00178    0.00000    0.00000
              0.00000    0.00178    0.00000        0.00000    0.00178    0.00000
              0.00000    0.00000   -0.00356        0.00000    0.00000   -0.00356

         MAIN DIRECTIONS OF THE EFG   1.0000  0.0000  0.0000
                                      0.0000  1.0000  0.0000
                                      0.0000  0.0000  1.0000
:ANG002:  ANGLE WITH OLD X-AXIS =         0.0

:ETA002:                         ASYMM. ETA =     0.00000


       ATOMNUMBER=  3 Sb1        VCOUL-ZERO =  0.40431E+00
:EFG003:                        EFG         =     0.03557   *10**21  V / m**2
                               V20  TOT/SRF=     0.03080     0.05027
                               V22  TOT/SRF=     0.00000     0.00000
                               V22M TOT/SRF=     0.00000     0.00000
                               V21  TOT/SRF=     0.00000     0.00000
                               V21M TOT/SRF=     0.00000     0.00000

             -0.01778    0.00000    0.00000       -0.01778    0.00000    0.00000
              0.00000   -0.01778    0.00000        0.00000   -0.01778    0.00000
              0.00000    0.00000    0.03557        0.00000    0.00000    0.03557

         MAIN DIRECTIONS OF THE EFG   1.0000  0.0000  0.0000
                                      0.0000  1.0000  0.0000
                                      0.0000  0.0000  1.0000
:ANG003:  ANGLE WITH OLD X-AXIS =         0.0

:ETA003:                         ASYMM. ETA =     0.00000


       ATOMNUMBER=  4 Sb2        VCOUL-ZERO =  0.40431E+00
:EFG004:                        EFG         =     0.03557   *10**21  V / m**2
                               V20  TOT/SRF=     0.03080     0.05027
                               V22  TOT/SRF=     0.00000    -0.00000
                               V22M TOT/SRF=     0.00000     0.00000
                               V21  TOT/SRF=     0.00000     0.00000
                               V21M TOT/SRF=     0.00000     0.00000

             -0.01778    0.00000    0.00000       -0.01778    0.00000    0.00000
              0.00000   -0.01778    0.00000        0.00000   -0.01778    0.00000
              0.00000    0.00000    0.03557        0.00000    0.00000    0.03557

         MAIN DIRECTIONS OF THE EFG   1.0000  0.0000  0.0000
                                      0.0000  1.0000  0.0000
                                      0.0000  0.0000  1.0000
:ANG004:  ANGLE WITH OLD X-AXIS =         0.0

:ETA004:                         ASYMM. ETA =     0.00000


       ATOMNUMBER=  5 Mn3        VCOUL-ZERO =  0.52877E+00
:EFG005:                        EFG         =     0.04194   *10**21  V / m**2
                               V20  TOT/SRF=     0.03632     0.06433
                               V22  TOT/SRF=     0.00000     0.00000
                               V22M TOT/SRF=     0.00000     0.00000
                               V21  TOT/SRF=     0.00000     0.00000
                               V21M TOT/SRF=     0.00000     0.00000

             -0.02097    0.00000    0.00000       -0.02097    0.00000    0.00000
              0.00000   -0.02097    0.00000        0.00000   -0.02097    0.00000
              0.00000    0.00000    0.04194        0.00000    0.00000    0.04194

         MAIN DIRECTIONS OF THE EFG   1.0000  0.0000  0.0000
                                      0.0000  1.0000  0.0000
                                      0.0000  0.0000  1.0000
:ANG005:  ANGLE WITH OLD X-AXIS =         0.0

:ETA005:                         ASYMM. ETA =     0.00000


       ATOMNUMBER=  6 Mn4        VCOUL-ZERO =  0.52877E+00
:EFG006:                        EFG         =     0.04194   *10**21  V / m**2
                               V20  TOT/SRF=     0.03632     0.06433
                               V22  TOT/SRF=     0.00000    -0.00000
                               V22M TOT/SRF=     0.00000     0.00000
                               V21  TOT/SRF=     0.00000     0.00000
                               V21M TOT/SRF=     0.00000     0.00000

             -0.02097    0.00000    0.00000       -0.02097    0.00000    0.00000
              0.00000   -0.02097    0.00000        0.00000   -0.02097    0.00000
              0.00000    0.00000    0.04194        0.00000    0.00000    0.04194

         MAIN DIRECTIONS OF THE EFG   1.0000  0.0000  0.0000
                                      0.0000  1.0000  0.0000
                                      0.0000  0.0000  1.0000
:ANG006:  ANGLE WITH OLD X-AXIS =         0.0

:ETA006:                         ASYMM. ETA =     0.00000


     HELLMANN-FEYNMAN-FORCE IN mRy/a.u. = |F|  Fx       Fy             Fz
:FHF001:   1.ATOM      0.000000000054      0.000000000000      0.000000000000      0.000000000054

     HELLMANN-FEYNMAN-FORCE IN mRy/a.u. = |F|  Fx       Fy             Fz
:FHF002:   2.ATOM      0.000000000345      0.000000000000      0.000000000000     -0.000000000345

     HELLMANN-FEYNMAN-FORCE IN mRy/a.u. = |F|  Fx       Fy             Fz
:FHF003:   3.ATOM    801.447322069451      0.000000000000      0.000000000000    801.447322069451

     HELLMANN-FEYNMAN-FORCE IN mRy/a.u. = |F|  Fx       Fy             Fz
:FHF004:   4.ATOM    801.447322065835      0.000000000000      0.000000000000   -801.447322065835

     HELLMANN-FEYNMAN-FORCE IN mRy/a.u. = |F|  Fx       Fy             Fz
:FHF005:   5.ATOM    324.551086832745      0.000000000000      0.000000000000   -324.551086832745

     HELLMANN-FEYNMAN-FORCE IN mRy/a.u. = |F|  Fx       Fy             Fz
:FHF006:   6.ATOM    324.551086832801      0.000000000000      0.000000000000    324.551086832801

:FIT001: LUSE= 13 SIGMA OF V-XC FIT FOR ATOM  1  0.3548259E-02
:FIT001: LUSE= 13 SIGMA OF V-XC FIT FOR ATOM  1  0.5499714E-02
:FIT002: LUSE= 13 SIGMA OF V-XC FIT FOR ATOM  2  0.3548259E-02
:FIT002: LUSE= 13 SIGMA OF V-XC FIT FOR ATOM  2  0.5499714E-02
:FIT003: LUSE= 13 SIGMA OF V-XC FIT FOR ATOM  3  0.1054020E-02
:FIT003: LUSE= 13 SIGMA OF V-XC FIT FOR ATOM  3  0.9465710E-03
:FIT004: LUSE= 13 SIGMA OF V-XC FIT FOR ATOM  4  0.1054020E-02
:FIT004: LUSE= 13 SIGMA OF V-XC FIT FOR ATOM  4  0.9465710E-03
:FIT005: LUSE= 13 SIGMA OF V-XC FIT FOR ATOM  5  0.3388778E-02
:FIT005: LUSE= 13 SIGMA OF V-XC FIT FOR ATOM  5  0.6164879E-02
:FIT006: LUSE= 13 SIGMA OF V-XC FIT FOR ATOM  6  0.3388778E-02
:FIT006: LUSE= 13 SIGMA OF V-XC FIT FOR ATOM  6  0.6164879E-02
:DEN  : DENSITY INTEGRAL  =        -14132.04640692   (Ry)
       ELS_POTENTIAL_AT Z=0 and Z=0.5:  -0.35649   0.73936
       ELS_POTENTIAL_AT Y=0 and Y=0.5:  -0.54688  -0.54688
:VZERO:v0,v0c,v0x  -1.20294  -0.35649  -0.84645 v5,v5c,v5x   0.14674   0.73936  -0.59262
:VZERY:v0,v0c,v0x  -1.38984  -0.54688  -0.84296 v5,v5c,v5x  -1.38984  -0.54688  -0.84296
:VZERX:v0,v0c,v0x  -1.38984  -0.54688  -0.84296 v5,v5c,v5x  -1.38984  -0.54688  -0.84296
:LMAX-WF:   10   Non-Spherical LMAX:   4

          ATOMIC SPHERE DEPENDENT PARAMETERS FOR ATOM  Mn1       
:e__0001: OVERALL ENERGY PARAMETER IS    0.3000
          OVERALL BASIS SET ON ATOM IS LAPW
:E1_0001: E( 1)=    0.3000
             APW+lo
:E1_0001: E( 1)=   -3.1578   E(BOTTOM)=   -3.192   E(TOP)=   -3.123  1  2   161
             LOCAL ORBITAL
:E2_0001: E( 2)=    0.3087   E(BOTTOM)=    0.082   E(TOP)=    0.536  0  1   126
             APW+lo
:E0_0001: E( 0)=    0.3000
             APW+lo

          ATOMIC SPHERE DEPENDENT PARAMETERS FOR ATOM  Mn2       
:e__0002: OVERALL ENERGY PARAMETER IS    0.3000
          OVERALL BASIS SET ON ATOM IS LAPW
:E1_0002: E( 1)=    0.3000
             APW+lo
:E1_0002: E( 1)=   -3.1578   E(BOTTOM)=   -3.192   E(TOP)=   -3.123  1  2   161
             LOCAL ORBITAL
:E2_0002: E( 2)=    0.3087   E(BOTTOM)=    0.082   E(TOP)=    0.536  0  1   126
             APW+lo
:E0_0002: E( 0)=    0.3000
             APW+lo

          ATOMIC SPHERE DEPENDENT PARAMETERS FOR ATOM  Sb1       
:e__0003: OVERALL ENERGY PARAMETER IS    0.3000
          OVERALL BASIS SET ON ATOM IS LAPW
:E2_0003: E( 2)=    0.3000
             APW+lo
:E2_0003: E( 2)=   -1.4760   E(BOTTOM)=   -1.563   E(TOP)=   -1.390  1  2   158
             LOCAL ORBITAL
:E0_0003: E( 0)=    0.7000
             APW+lo
:E0_0003: E( 0)=   -0.6300   E(BOTTOM)=   -0.793   E(TOP)= -200.000  4 -1   144
             LOCAL ORBITAL
:E1_0003: E( 1)=    0.3000
             APW+lo

          ATOMIC SPHERE DEPENDENT PARAMETERS FOR ATOM  Sb2       
:e__0004: OVERALL ENERGY PARAMETER IS    0.3000
          OVERALL BASIS SET ON ATOM IS LAPW
:E2_0004: E( 2)=    0.3000
             APW+lo
:E2_0004: E( 2)=   -1.4760   E(BOTTOM)=   -1.563   E(TOP)=   -1.390  1  2   158
             LOCAL ORBITAL
:E0_0004: E( 0)=    0.7000
             APW+lo
:E0_0004: E( 0)=   -0.6300   E(BOTTOM)=   -0.793   E(TOP)= -200.000  4 -1   144
             LOCAL ORBITAL
:E1_0004: E( 1)=    0.3000
             APW+lo

          ATOMIC SPHERE DEPENDENT PARAMETERS FOR ATOM  Mn3       
:e__0005: OVERALL ENERGY PARAMETER IS    0.3000
          OVERALL BASIS SET ON ATOM IS LAPW
:E1_0005: E( 1)=    0.3000
             APW+lo
:E1_0005: E( 1)=   -3.1299   E(BOTTOM)=   -3.163   E(TOP)=   -3.096  1  2   165
             LOCAL ORBITAL
:E2_0005: E( 2)=    0.3444   E(BOTTOM)=    0.124   E(TOP)=    0.564  0  1   119
             APW+lo
:E0_0005: E( 0)=    0.3000
             APW+lo

          ATOMIC SPHERE DEPENDENT PARAMETERS FOR ATOM  Mn4       
:e__0006: OVERALL ENERGY PARAMETER IS    0.3000
          OVERALL BASIS SET ON ATOM IS LAPW
:E1_0006: E( 1)=    0.3000
             APW+lo
:E1_0006: E( 1)=   -3.1299   E(BOTTOM)=   -3.163   E(TOP)=   -3.096  1  2   165
             LOCAL ORBITAL
:E2_0006: E( 2)=    0.3444   E(BOTTOM)=    0.124   E(TOP)=    0.564  0  1   119
             APW+lo
:E0_0006: E( 0)=    0.3000
             APW+lo

       K=   0.03571   0.03571   0.05556            1
:RKM  : MATRIX SIZE   362LOs:  78  RKM= 6.99  WEIGHT= 8.00  PGR:    
       EIGENVALUES ARE:
:EIG00001:      -3.1528648   -3.1527780   -3.1512940   -3.1498984   -3.1484162
:EIG00006:      -3.1483632   -3.1249088   -3.1242852   -3.1214191   -3.1214078
:EIG00011:      -3.1213903   -3.1213779   -1.4590041   -1.4585860   -1.4572798
:EIG00016:      -1.4572294   -1.4568653   -1.4566606   -1.4550187   -1.4550038
:EIG00021:      -1.4545760   -1.4545215   -0.2732052   -0.1332860    0.1199824
:EIG00026:       0.2015618    0.2203204    0.2226604    0.2405638    0.2718395
:EIG00031:       0.3047537    0.3151052    0.3152788    0.3423841    0.3434778
:EIG00036:       0.3494791    0.3614266    0.3762560    0.3797948    0.3890272
:EIG00041:       0.4022933    0.4071460    0.4091696    0.4154348    0.4214212
:EIG00046:       0.4354116    0.4416371    0.5800123    0.6604956    0.6935114
 
:EIG00051:       0.7301288    0.7809242    0.8515255    0.9308472    0.9371631
:EIG00056:       0.9631436    1.0392029    1.0989075    1.1197990    1.1315819
:EIG00061:       1.2586349    1.3062463    1.3376151    1.3867398    1.4191504
:EIG00066:       1.4880677    1.5009468    1.5205977    1.5794901    1.6143709
:EIG00071:       1.6226285    1.6246761    1.6551604    1.7064604    1.7123451
:EIG00076:       1.8532195    1.8782357    1.8932213
       ********************************************************

:KPT   :      NUMBER OF K-POINTS:   245
:LMAX-WF:   10   Non-Spherical LMAX:   4

          ATOMIC SPHERE DEPENDENT PARAMETERS FOR ATOM  Mn1       
:e__0001: OVERALL ENERGY PARAMETER IS    0.3000
          OVERALL BASIS SET ON ATOM IS LAPW
:E1_0001: E( 1)=    0.3000
             APW+lo
:E1_0001: E( 1)=   -2.7919   E(BOTTOM)=   -2.830   E(TOP)=   -2.753  1  2   206
             LOCAL ORBITAL
:E2_0001: E( 2)=    0.6377   E(BOTTOM)=    0.373   E(TOP)=    0.902  0  1   132
             APW+lo
:E0_0001: E( 0)=    0.3000
             APW+lo

          ATOMIC SPHERE DEPENDENT PARAMETERS FOR ATOM  Mn2       
:e__0002: OVERALL ENERGY PARAMETER IS    0.3000
          OVERALL BASIS SET ON ATOM IS LAPW
:E1_0002: E( 1)=    0.3000
             APW+lo
:E1_0002: E( 1)=   -2.7919   E(BOTTOM)=   -2.830   E(TOP)=   -2.753  1  2   206
             LOCAL ORBITAL
:E2_0002: E( 2)=    0.6377   E(BOTTOM)=    0.373   E(TOP)=    0.902  0  1   132
             APW+lo
:E0_0002: E( 0)=    0.3000
             APW+lo

          ATOMIC SPHERE DEPENDENT PARAMETERS FOR ATOM  Sb1       
:e__0003: OVERALL ENERGY PARAMETER IS    0.3000
          OVERALL BASIS SET ON ATOM IS LAPW
:E2_0003: E( 2)=    0.3000
             APW+lo
:E2_0003: E( 2)=   -1.4768   E(BOTTOM)=   -1.563   E(TOP)=   -1.390  1  2   164
             LOCAL ORBITAL
:E0_0003: E( 0)=    0.7000
             APW+lo
:E0_0003: E( 0)=   -0.6300   E(BOTTOM)=   -0.797   E(TOP)= -200.000  4 -1   144
             LOCAL ORBITAL
:E1_0003: E( 1)=    0.3000
             APW+lo

          ATOMIC SPHERE DEPENDENT PARAMETERS FOR ATOM  Sb2       
:e__0004: OVERALL ENERGY PARAMETER IS    0.3000
          OVERALL BASIS SET ON ATOM IS LAPW
:E2_0004: E( 2)=    0.3000
             APW+lo
:E2_0004: E( 2)=   -1.4768   E(BOTTOM)=   -1.563   E(TOP)=   -1.390  1  2   164
             LOCAL ORBITAL
:E0_0004: E( 0)=    0.7000
             APW+lo
:E0_0004: E( 0)=   -0.6300   E(BOTTOM)=   -0.797   E(TOP)= -200.000  4 -1   144
             LOCAL ORBITAL
:E1_0004: E( 1)=    0.3000
             APW+lo

          ATOMIC SPHERE DEPENDENT PARAMETERS FOR ATOM  Mn3       
:e__0005: OVERALL ENERGY PARAMETER IS    0.3000
          OVERALL BASIS SET ON ATOM IS LAPW
:E1_0005: E( 1)=    0.3000
             APW+lo
:E1_0005: E( 1)=   -2.7629   E(BOTTOM)=   -2.800   E(TOP)=   -2.725  1  2   203
             LOCAL ORBITAL
:E2_0005: E( 2)=    0.6768   E(BOTTOM)=    0.422   E(TOP)=    0.932  0  1   139
             APW+lo
:E0_0005: E( 0)=    0.3000
             APW+lo

          ATOMIC SPHERE DEPENDENT PARAMETERS FOR ATOM  Mn4       
:e__0006: OVERALL ENERGY PARAMETER IS    0.3000
          OVERALL BASIS SET ON ATOM IS LAPW
:E1_0006: E( 1)=    0.3000
             APW+lo
:E1_0006: E( 1)=   -2.7629   E(BOTTOM)=   -2.800   E(TOP)=   -2.725  1  2   203
             LOCAL ORBITAL
:E2_0006: E( 2)=    0.6768   E(BOTTOM)=    0.422   E(TOP)=    0.932  0  1   139
             APW+lo
:E0_0006: E( 0)=    0.3000
             APW+lo

       K=   0.03571   0.03571   0.05556            1
:RKM  : MATRIX SIZE   362LOs:  78  RKM= 6.99  WEIGHT= 8.00  PGR:    
       EIGENVALUES ARE:
:EIG00001:      -2.7867500   -2.7866447   -2.7848701   -2.7830103   -2.7812113
:EIG00006:      -2.7811385   -2.7573352   -2.7564957   -2.7535107   -2.7535004
:EIG00011:      -2.7534664   -2.7534541   -1.4595117   -1.4590688   -1.4577789
:EIG00016:      -1.4577280   -1.4573641   -1.4571620   -1.4555975   -1.4555897
:EIG00021:      -1.4551805   -1.4550878   -0.2414082   -0.1099998    0.1879735
:EIG00026:       0.3792943    0.4132206    0.4150467    0.4222166    0.4311060
:EIG00031:       0.5067513    0.5086222    0.5251133    0.5527202    0.5954555
:EIG00036:       0.5966905    0.6112647    0.6798744    0.6923043    0.6941016
:EIG00041:       0.6976740    0.7154082    0.7162461    0.7296364    0.7332546
:EIG00046:       0.7526538    0.7711784    0.7729026    0.7765214    0.8437837
 
:EIG00051:       0.8506966    0.9678640    1.0383215    1.0533327    1.0541696
:EIG00056:       1.0934184    1.1575095    1.1892496    1.2050850    1.2284480
:EIG00061:       1.3647139    1.3862364    1.4129445    1.4355341    1.5067575
:EIG00066:       1.5485181    1.5735675    1.5794713    1.6726393    1.6865261
:EIG00071:       1.6910566    1.7153386    1.7383800    1.7723744    1.7836213
:EIG00076:       1.9282551    1.9705702    1.9792005
       ********************************************************

:KPT   :      NUMBER OF K-POINTS:   245
:GAP (global)   :    0.0    Ry =     0.0   eV (metal)
:GAP (this spin):    0.0    Ry =     0.0   eV (metal)
         Bandranges (emin - emax) and occupancy:
:BAN00040:  40    0.351644    0.393359  1.00000000
:BAN00041:  41    0.375033    0.402293  1.00000000
:BAN00042:  42    0.378972    0.411550  1.00000000
:BAN00043:  43    0.402792    0.420239  1.00000000
:BAN00044:  44    0.404267    0.423699  1.00000000
:BAN00045:  45    0.414276    0.485738  1.00000000
:BAN00046:  46    0.417200    0.516912  1.00000000
:BAN00047:  47    0.436609    0.643912  0.93833689
:BAN00048:  48    0.443688    0.663507  0.80045492
:BAN00049:  49    0.462524    0.692742  0.36266857
:BAN00050:  50    0.465787    0.723745  0.21899921
:BAN00051:  51    0.634465    0.840959  0.00000000
:BAN00052:  52    0.640663    0.877493  0.00000000
:BAN00053:  53    0.808187    0.939868  0.00000000
:BAN00054:  54    0.813809    0.983320  0.00000000
:BAN00055:  55    0.859826    1.240340  0.00000000
        Energy to separate low and high energystates:    0.03614


:NOE  : NUMBER OF ELECTRONS          =   82.000

:FER  : F E R M I - ENERGY(TETRAH.M.)=   0.5651791051
:GMA  : POTENTIAL AND CHARGE CUT-OFF  12.00 Ry**.5

:POS001: ATOM   -1 X,Y,Z = 0.00000 0.00000 0.00000  MULT= 1  ZZ= 25.000  Mn1       

       LMMAX 16
       LM=   0 0  1 0  2 0  2 2  3 0  3 2  4 0  4 2  4 4  5 0  5 2  5 4  6 0  6 2  6 4  6 6

:CHA001: TOTAL VALENCE CHARGE INSIDE SPHERE   1 =   7.9184    (RMT=  2.5000 )
:PCS001: PARTIAL CHARGES SPHERE =  1 S,P,D,F,PX,PY,PZ,D-Z2,D-X2Y2,D-XY,D-XZ,D-YZ 
:QTL001: 0.2182 3.2440 4.4392 0.0136 1.0798 1.0798 1.0844 0.9059 0.8931 0.8991 0.8705 0.8705
        Q-s-low E-s-low   Q-p-low E-p-low   Q-d-low E-d-low   Q-f-low E-f-low
:EPL001:  0.0527 -0.2044    3.0275 -3.1169    0.0321 -0.1943    0.0015 -0.6229
        Q-s-hi  E-s-hi    Q-p-hi  E-p-hi    Q-d-hi  E-d-hi    Q-f-hi  E-f-hi 
:EPH001:  0.1655  0.2277    0.2165  0.3243    4.4071  0.3315    0.0121  0.3535

                      VXX         VYY         VZZ       UP TO R
:VZZ001:            -0.00247    -0.00247     0.00494       2.500

:POS002: ATOM   -2 X,Y,Z = 0.50000 0.50000 0.00000  MULT= 1  ZZ= 25.000  Mn2       

       LMMAX 16
       LM=   0 0  1 0  2 0  2 2  3 0  3 2  4 0  4 2  4 4  5 0  5 2  5 4  6 0  6 2  6 4  6 6

:CHA002: TOTAL VALENCE CHARGE INSIDE SPHERE   2 =   7.9184    (RMT=  2.5000 )
:PCS002: PARTIAL CHARGES SPHERE =  2 S,P,D,F,PX,PY,PZ,D-Z2,D-X2Y2,D-XY,D-XZ,D-YZ 
:QTL002: 0.2182 3.2440 4.4392 0.0136 1.0798 1.0798 1.0844 0.9059 0.8931 0.8991 0.8705 0.8705
        Q-s-low E-s-low   Q-p-low E-p-low   Q-d-low E-d-low   Q-f-low E-f-low
:EPL002:  0.0527 -0.2044    3.0275 -3.1169    0.0321 -0.1943    0.0015 -0.6229
        Q-s-hi  E-s-hi    Q-p-hi  E-p-hi    Q-d-hi  E-d-hi    Q-f-hi  E-f-hi 
:EPH002:  0.1655  0.2277    0.2165  0.3243    4.4071  0.3315    0.0121  0.3535

                      VXX         VYY         VZZ       UP TO R
:VZZ002:            -0.00247    -0.00247     0.00494       2.500

:POS003: ATOM   -3 X,Y,Z = 0.00000 0.50000 0.28000  MULT= 1  ZZ= 51.000  Sb1       

       LMMAX 16
       LM=   0 0  1 0  2 0  2 2  3 0  3 2  4 0  4 2  4 4  5 0  5 2  5 4  6 0  6 2  6 4  6 6

:CHA003: TOTAL VALENCE CHARGE INSIDE SPHERE   3 =   6.2765    (RMT=  2.5000 )
:PCS003: PARTIAL CHARGES SPHERE =  3 S,P,D,F,PX,PY,PZ,D-Z2,D-X2Y2,D-XY,D-XZ,D-YZ 
:QTL003: 0.6074 0.6426 5.0084 0.0142 0.2060 0.2060 0.2306 1.0023 0.9996 1.0026 1.0020 1.0020
        Q-s-low E-s-low   Q-p-low E-p-low   Q-d-low E-d-low   Q-f-low E-f-low
:EPL003:  0.4961 -0.1567    0.0099 -0.2221    4.9561 -1.4561    0.0003 -1.1405
        Q-s-hi  E-s-hi    Q-p-hi  E-p-hi    Q-d-hi  E-d-hi    Q-f-hi  E-f-hi 
:EPH003:  0.1113  0.3390    0.6327  0.3112    0.0523  0.3356    0.0139  0.3456

                      VXX         VYY         VZZ       UP TO R
:VZZ003:             2.76782     2.76782    -5.53564       2.500

:POS004: ATOM   -4 X,Y,Z = 0.50000 0.00000 0.72000  MULT= 1  ZZ= 51.000  Sb2       

       LMMAX 16
       LM=   0 0  1 0  2 0  2 2  3 0  3 2  4 0  4 2  4 4  5 0  5 2  5 4  6 0  6 2  6 4  6 6

:CHA004: TOTAL VALENCE CHARGE INSIDE SPHERE   4 =   6.2765    (RMT=  2.5000 )
:PCS004: PARTIAL CHARGES SPHERE =  4 S,P,D,F,PX,PY,PZ,D-Z2,D-X2Y2,D-XY,D-XZ,D-YZ 
:QTL004: 0.6074 0.6426 5.0084 0.0142 0.2060 0.2060 0.2306 1.0023 0.9996 1.0026 1.0020 1.0020
        Q-s-low E-s-low   Q-p-low E-p-low   Q-d-low E-d-low   Q-f-low E-f-low
:EPL004:  0.4961 -0.1567    0.0099 -0.2221    4.9561 -1.4561    0.0003 -1.1405
        Q-s-hi  E-s-hi    Q-p-hi  E-p-hi    Q-d-hi  E-d-hi    Q-f-hi  E-f-hi 
:EPH004:  0.1113  0.3390    0.6327  0.3112    0.0523  0.3356    0.0139  0.3456

                      VXX         VYY         VZZ       UP TO R
:VZZ004:             2.76782     2.76782    -5.53564       2.500

:POS005: ATOM   -5 X,Y,Z = 0.00000 0.50000 0.70500  MULT= 1  ZZ= 25.000  Mn3       

       LMMAX 16
       LM=   0 0  1 0  2 0  2 2  3 0  3 2  4 0  4 2  4 4  5 0  5 2  5 4  6 0  6 2  6 4  6 6

:CHA005: TOTAL VALENCE CHARGE INSIDE SPHERE   5 =   7.8698    (RMT=  2.5000 )
:PCS005: PARTIAL CHARGES SPHERE =  5 S,P,D,F,PX,PY,PZ,D-Z2,D-X2Y2,D-XY,D-XZ,D-YZ 
:QTL005: 0.2023 3.1761 4.4796 0.0094 1.0538 1.0538 1.0685 0.8852 0.9050 0.8850 0.9021 0.9021
        Q-s-low E-s-low   Q-p-low E-p-low   Q-d-low E-d-low   Q-f-low E-f-low
:EPL005:  0.0242 -0.2092    3.0108 -3.1060    0.0185 -0.1926    0.0010 -0.5294
        Q-s-hi  E-s-hi    Q-p-hi  E-p-hi    Q-d-hi  E-d-hi    Q-f-hi  E-f-hi 
:EPH005:  0.1782  0.2632    0.1652  0.3442    4.4610  0.3683    0.0083  0.3399

                      VXX         VYY         VZZ       UP TO R
:VZZ005:             0.48121     0.48121    -0.96242       2.500

:POS006: ATOM   -6 X,Y,Z = 0.50000 0.00000 0.29500  MULT= 1  ZZ= 25.000  Mn4       

       LMMAX 16
       LM=   0 0  1 0  2 0  2 2  3 0  3 2  4 0  4 2  4 4  5 0  5 2  5 4  6 0  6 2  6 4  6 6

:CHA006: TOTAL VALENCE CHARGE INSIDE SPHERE   6 =   7.8698    (RMT=  2.5000 )
:PCS006: PARTIAL CHARGES SPHERE =  6 S,P,D,F,PX,PY,PZ,D-Z2,D-X2Y2,D-XY,D-XZ,D-YZ 
:QTL006: 0.2023 3.1761 4.4796 0.0094 1.0538 1.0538 1.0685 0.8852 0.9050 0.8850 0.9021 0.9021
        Q-s-low E-s-low   Q-p-low E-p-low   Q-d-low E-d-low   Q-f-low E-f-low
:EPL006:  0.0242 -0.2092    3.0108 -3.1060    0.0185 -0.1926    0.0010 -0.5294
        Q-s-hi  E-s-hi    Q-p-hi  E-p-hi    Q-d-hi  E-d-hi    Q-f-hi  E-f-hi 
:EPH006:  0.1782  0.2632    0.1652  0.3442    4.4610  0.3683    0.0083  0.3399

                      VXX         VYY         VZZ       UP TO R
:VZZ006:             0.48121     0.48121    -0.96243       2.500

:CHA  : TOTAL VALENCE CHARGE INSIDE UNIT CELL =      48.320460

:SUM  : SUM OF EIGENVALUES =         -44.328318423

:GAP (global)   :    0.0    Ry =     0.0   eV (metal)
:GAP (this spin):    0.0    Ry =     0.0   eV (metal)
         Bandranges (emin - emax) and occupancy:
:BAN00024:  24   -0.178030   -0.088832  1.00000000
:BAN00025:  25    0.154108    0.278844  1.00000000
:BAN00026:  26    0.154280    0.379294  1.00000000
:BAN00027:  27    0.256557    0.413221  1.00000000
:BAN00028:  28    0.301538    0.415047  1.00000000
:BAN00029:  29    0.331061    0.444304  1.00000000
:BAN00030:  30    0.338034    0.452095  1.00000000
:BAN00031:  31    0.433616    0.529710  1.00000000
:BAN00032:  32    0.435392    0.529793  1.00000000
:BAN00033:  33    0.489907    0.564120  1.00000000
:BAN00034:  34    0.496919    0.587508  0.67954042
:BAN00035:  35    0.571411    0.617363  0.00000000
:BAN00036:  36    0.589305    0.626248  0.00000000
:BAN00037:  37    0.603727    0.655178  0.00000000
:BAN00038:  38    0.630974    0.684268  0.00000000
:BAN00039:  39    0.636084    0.695645  0.00000000
        Energy to separate low and high energystates:    0.10411


:NOE  : NUMBER OF ELECTRONS          =   82.000

:FER  : F E R M I - ENERGY(TETRAH.M.)=   0.5651791051
:GMA  : POTENTIAL AND CHARGE CUT-OFF  12.00 Ry**.5

:POS001: ATOM   -1 X,Y,Z = 0.00000 0.00000 0.00000  MULT= 1  ZZ= 25.000  Mn1       

       LMMAX 16
       LM=   0 0  1 0  2 0  2 2  3 0  3 2  4 0  4 2  4 4  5 0  5 2  5 4  6 0  6 2  6 4  6 6

:CHA001: TOTAL VALENCE CHARGE INSIDE SPHERE   1 =   4.5451    (RMT=  2.5000 )
:PCS001: PARTIAL CHARGES SPHERE =  1 S,P,D,F,PX,PY,PZ,D-Z2,D-X2Y2,D-XY,D-XZ,D-YZ 
:QTL001: 0.1879 3.2177 1.1279 0.0098 1.0748 1.0748 1.0682 0.2007 0.1404 0.3063 0.2402 0.2402
        Q-s-low E-s-low   Q-p-low E-p-low   Q-d-low E-d-low   Q-f-low E-f-low
:EPL001:  0.0406 -0.1800    3.0219 -2.7575    0.0187 -0.2100    0.0016 -0.5591
        Q-s-hi  E-s-hi    Q-p-hi  E-p-hi    Q-d-hi  E-d-hi    Q-f-hi  E-f-hi 
:EPH001:  0.1473  0.2768    0.1958  0.3870    1.1091  0.4767    0.0081  0.4273

                      VXX         VYY         VZZ       UP TO R
:VZZ001:            -0.36112    -0.36112     0.72224       2.500

:POS002: ATOM   -2 X,Y,Z = 0.50000 0.50000 0.00000  MULT= 1  ZZ= 25.000  Mn2       

       LMMAX 16
       LM=   0 0  1 0  2 0  2 2  3 0  3 2  4 0  4 2  4 4  5 0  5 2  5 4  6 0  6 2  6 4  6 6

:CHA002: TOTAL VALENCE CHARGE INSIDE SPHERE   2 =   4.5451    (RMT=  2.5000 )
:PCS002: PARTIAL CHARGES SPHERE =  2 S,P,D,F,PX,PY,PZ,D-Z2,D-X2Y2,D-XY,D-XZ,D-YZ 
:QTL002: 0.1879 3.2177 1.1279 0.0098 1.0748 1.0748 1.0682 0.2007 0.1404 0.3063 0.2402 0.2402
        Q-s-low E-s-low   Q-p-low E-p-low   Q-d-low E-d-low   Q-f-low E-f-low
:EPL002:  0.0406 -0.1800    3.0219 -2.7575    0.0187 -0.2100    0.0016 -0.5591
        Q-s-hi  E-s-hi    Q-p-hi  E-p-hi    Q-d-hi  E-d-hi    Q-f-hi  E-f-hi 
:EPH002:  0.1473  0.2768    0.1958  0.3870    1.1091  0.4767    0.0081  0.4273

                      VXX         VYY         VZZ       UP TO R
:VZZ002:            -0.36112    -0.36112     0.72224       2.500

:POS003: ATOM   -3 X,Y,Z = 0.00000 0.50000 0.28000  MULT= 1  ZZ= 51.000  Sb1       

       LMMAX 16
       LM=   0 0  1 0  2 0  2 2  3 0  3 2  4 0  4 2  4 4  5 0  5 2  5 4  6 0  6 2  6 4  6 6

:CHA003: TOTAL VALENCE CHARGE INSIDE SPHERE   3 =   6.4012    (RMT=  2.5000 )
:PCS003: PARTIAL CHARGES SPHERE =  3 S,P,D,F,PX,PY,PZ,D-Z2,D-X2Y2,D-XY,D-XZ,D-YZ 
:QTL003: 0.5999 0.7917 5.0000 0.0083 0.2555 0.2555 0.2806 1.0020 0.9961 1.0022 0.9999 0.9999
        Q-s-low E-s-low   Q-p-low E-p-low   Q-d-low E-d-low   Q-f-low E-f-low
:EPL003:  0.5407 -0.1330    0.0086 -0.2202    4.9565 -1.4567    0.0003 -1.3089
        Q-s-hi  E-s-hi    Q-p-hi  E-p-hi    Q-d-hi  E-d-hi    Q-f-hi  E-f-hi 
:EPH003:  0.0592  0.2932    0.7830  0.3547    0.0434  0.4540    0.0080  0.4857

                      VXX         VYY         VZZ       UP TO R
:VZZ003:             3.01378     3.01378    -6.02757       2.500

:POS004: ATOM   -4 X,Y,Z = 0.50000 0.00000 0.72000  MULT= 1  ZZ= 51.000  Sb2       

       LMMAX 16
       LM=   0 0  1 0  2 0  2 2  3 0  3 2  4 0  4 2  4 4  5 0  5 2  5 4  6 0  6 2  6 4  6 6

:CHA004: TOTAL VALENCE CHARGE INSIDE SPHERE   4 =   6.4012    (RMT=  2.5000 )
:PCS004: PARTIAL CHARGES SPHERE =  4 S,P,D,F,PX,PY,PZ,D-Z2,D-X2Y2,D-XY,D-XZ,D-YZ 
:QTL004: 0.5999 0.7917 5.0000 0.0083 0.2555 0.2555 0.2806 1.0020 0.9961 1.0022 0.9999 0.9999
        Q-s-low E-s-low   Q-p-low E-p-low   Q-d-low E-d-low   Q-f-low E-f-low
:EPL004:  0.5407 -0.1330    0.0086 -0.2202    4.9565 -1.4567    0.0003 -1.3089
        Q-s-hi  E-s-hi    Q-p-hi  E-p-hi    Q-d-hi  E-d-hi    Q-f-hi  E-f-hi 
:EPH004:  0.0592  0.2932    0.7830  0.3547    0.0434  0.4540    0.0080  0.4857

                      VXX         VYY         VZZ       UP TO R
:VZZ004:             3.01378     3.01378    -6.02757       2.500

:POS005: ATOM   -5 X,Y,Z = 0.00000 0.50000 0.70500  MULT= 1  ZZ= 25.000  Mn3       

       LMMAX 16
       LM=   0 0  1 0  2 0  2 2  3 0  3 2  4 0  4 2  4 4  5 0  5 2  5 4  6 0  6 2  6 4  6 6

:CHA005: TOTAL VALENCE CHARGE INSIDE SPHERE   5 =   3.8835    (RMT=  2.5000 )
:PCS005: PARTIAL CHARGES SPHERE =  5 S,P,D,F,PX,PY,PZ,D-Z2,D-X2Y2,D-XY,D-XZ,D-YZ 
:QTL005: 0.1715 3.1528 0.5502 0.0075 1.0430 1.0430 1.0668 0.1485 0.0670 0.1010 0.1168 0.1168
        Q-s-low E-s-low   Q-p-low E-p-low   Q-d-low E-d-low   Q-f-low E-f-low
:EPL005:  0.0196 -0.1873    3.0080 -2.7413    0.0112 -0.2057    0.0011 -0.4974
        Q-s-hi  E-s-hi    Q-p-hi  E-p-hi    Q-d-hi  E-d-hi    Q-f-hi  E-f-hi 
:EPH005:  0.1519  0.3221    0.1448  0.3926    0.5390  0.4694    0.0064  0.4193

                      VXX         VYY         VZZ       UP TO R
:VZZ005:             1.88672     1.88672    -3.77344       2.500

:POS006: ATOM   -6 X,Y,Z = 0.50000 0.00000 0.29500  MULT= 1  ZZ= 25.000  Mn4       

       LMMAX 16
       LM=   0 0  1 0  2 0  2 2  3 0  3 2  4 0  4 2  4 4  5 0  5 2  5 4  6 0  6 2  6 4  6 6

:CHA006: TOTAL VALENCE CHARGE INSIDE SPHERE   6 =   3.8835    (RMT=  2.5000 )
:PCS006: PARTIAL CHARGES SPHERE =  6 S,P,D,F,PX,PY,PZ,D-Z2,D-X2Y2,D-XY,D-XZ,D-YZ 
:QTL006: 0.1715 3.1528 0.5502 0.0075 1.0430 1.0430 1.0668 0.1485 0.0670 0.1010 0.1168 0.1168
        Q-s-low E-s-low   Q-p-low E-p-low   Q-d-low E-d-low   Q-f-low E-f-low
:EPL006:  0.0196 -0.1873    3.0080 -2.7413    0.0112 -0.2057    0.0011 -0.4974
        Q-s-hi  E-s-hi    Q-p-hi  E-p-hi    Q-d-hi  E-d-hi    Q-f-hi  E-f-hi 
:EPH006:  0.1519  0.3221    0.1448  0.3926    0.5390  0.4694    0.0064  0.4193

                      VXX         VYY         VZZ       UP TO R
:VZZ006:             1.88672     1.88672    -3.77344       2.500

:CHA  : TOTAL VALENCE CHARGE INSIDE UNIT CELL =      33.679540

:SUM  : SUM OF EIGENVALUES =         -44.181743615


        1.ATOM      Mn1                   5 CORE STATES
       CORE-FORCE in mRy/a.u. = |F|      Fx             Fy             Fz
:FCO001:   1.ATOM      0.000000006147      0.000000000000      0.000000000000     -0.000000006147

:1S 001: 1S                -471.390343324 Ry
:2S 001: 2S                 -53.656006219 Ry
:2PP001: 2P*                -45.789673454 Ry
:2P 001: 2P                 -45.024601213 Ry
:3S 001: 3S                  -5.446067291 Ry

        2.ATOM      Mn2                   5 CORE STATES
       CORE-FORCE in mRy/a.u. = |F|      Fx             Fy             Fz
:FCO002:   2.ATOM      0.000000000439      0.000000000000      0.000000000000     -0.000000000439

:1S 002: 1S                -471.390343324 Ry
:2S 002: 2S                 -53.656006219 Ry
:2PP002: 2P*                -45.789673454 Ry
:2P 002: 2P                 -45.024601213 Ry
:3S 002: 3S                  -5.446067291 Ry

        3.ATOM      Sb1                  12 CORE STATES
       CORE-FORCE in mRy/a.u. = |F|      Fx             Fy             Fz
:FCO003:   3.ATOM    604.837769307481      0.000000000000      0.000000000000   -604.837769307481

:1S 003: 1S               -2224.882575555 Ry
:2S 003: 2S                -337.582854002 Ry
:2PP003: 2P*               -315.743687470 Ry
:2P 003: 2P                -297.235541593 Ry
:3S 003: 3S                 -65.362438804 Ry
:3PP003: 3P*                -56.438413651 Ry
:3P 003: 3P                 -53.023402235 Ry
:3DD003: 3D*                -37.271783835 Ry
:3D 003: 3D                 -36.562128079 Ry
:4S 003: 4S                  -9.913983686 Ry
:4PP003: 4P*                 -6.898761628 Ry
:4P 003: 4P                  -6.268796509 Ry

        4.ATOM      Sb2                  12 CORE STATES
       CORE-FORCE in mRy/a.u. = |F|      Fx             Fy             Fz
:FCO004:   4.ATOM    604.837769300787      0.000000000000      0.000000000000    604.837769300787

:1S 004: 1S               -2224.882575555 Ry
:2S 004: 2S                -337.582854002 Ry
:2PP004: 2P*               -315.743687470 Ry
:2P 004: 2P                -297.235541593 Ry
:3S 004: 3S                 -65.362438804 Ry
:3PP004: 3P*                -56.438413651 Ry
:3P 004: 3P                 -53.023402235 Ry
:3DD004: 3D*                -37.271783835 Ry
:3D 004: 3D                 -36.562128079 Ry
:4S 004: 4S                  -9.913983686 Ry
:4PP004: 4P*                 -6.898761628 Ry
:4P 004: 4P                  -6.268796509 Ry

        5.ATOM      Mn3                   5 CORE STATES
       CORE-FORCE in mRy/a.u. = |F|      Fx             Fy             Fz
:FCO005:   5.ATOM    162.667397635572      0.000000000000      0.000000000000    162.667397635572

:1S 005: 1S                -471.369242585 Ry
:2S 005: 2S                 -53.634366211 Ry
:2PP005: 2P*                -45.768146213 Ry
:2P 005: 2P                 -45.003063583 Ry
:3S 005: 3S                  -5.419512057 Ry

        6.ATOM      Mn4                   5 CORE STATES
       CORE-FORCE in mRy/a.u. = |F|      Fx             Fy             Fz
:FCO006:   6.ATOM    162.667397652295      0.000000000000      0.000000000000   -162.667397652295

:1S 006: 1S                -471.369242585 Ry
:2S 006: 2S                 -53.634366211 Ry
:2PP006: 2P*                -45.768146213 Ry
:2P 006: 2P                 -45.003063583 Ry
:3S 006: 3S                  -5.419512057 Ry

        1.ATOM      Mn1                   5 CORE STATES
       CORE-FORCE in mRy/a.u. = |F|      Fx             Fy             Fz
:FCO001:   1.ATOM      0.000000003885      0.000000000000      0.000000000000     -0.000000003885

:1S 001: 1S                -471.391206217 Ry
:2S 001: 2S                 -53.504796940 Ry
:2PP001: 2P*                -45.676778917 Ry
:2P 001: 2P                 -44.908590642 Ry
:3S 001: 3S                  -5.071435925 Ry

        2.ATOM      Mn2                   5 CORE STATES
       CORE-FORCE in mRy/a.u. = |F|      Fx             Fy             Fz
:FCO002:   2.ATOM      0.000000000284      0.000000000000      0.000000000000      0.000000000284

:1S 002: 1S                -471.391206217 Ry
:2S 002: 2S                 -53.504796940 Ry
:2PP002: 2P*                -45.676778917 Ry
:2P 002: 2P                 -44.908590642 Ry
:3S 002: 3S                  -5.071435925 Ry

        3.ATOM      Sb1                  12 CORE STATES
       CORE-FORCE in mRy/a.u. = |F|      Fx             Fy             Fz
:FCO003:   3.ATOM    605.384369525283      0.000000000000      0.000000000000   -605.384369525283

:1S 003: 1S               -2224.882577073 Ry
:2S 003: 2S                -337.582864962 Ry
:2PP003: 2P*               -315.743696085 Ry
:2P 003: 2P                -297.235550866 Ry
:3S 003: 3S                 -65.362496477 Ry
:3PP003: 3P*                -56.438468948 Ry
:3P 003: 3P                 -53.023461598 Ry
:3DD003: 3D*                -37.271834700 Ry
:3D 003: 3D                 -36.562180060 Ry
:4S 003: 4S                  -9.914256795 Ry
:4PP003: 4P*                 -6.899076724 Ry
:4P 003: 4P                  -6.269138757 Ry

        4.ATOM      Sb2                  12 CORE STATES
       CORE-FORCE in mRy/a.u. = |F|      Fx             Fy             Fz
:FCO004:   4.ATOM    605.384369548233      0.000000000000      0.000000000000    605.384369548233

:1S 004: 1S               -2224.882577073 Ry
:2S 004: 2S                -337.582864962 Ry
:2PP004: 2P*               -315.743696085 Ry
:2P 004: 2P                -297.235550866 Ry
:3S 004: 3S                 -65.362496477 Ry
:3PP004: 3P*                -56.438468948 Ry
:3P 004: 3P                 -53.023461598 Ry
:3DD004: 3D*                -37.271834700 Ry
:3D 004: 3D                 -36.562180060 Ry
:4S 004: 4S                  -9.914256795 Ry
:4PP004: 4P*                 -6.899076724 Ry
:4P 004: 4P                  -6.269138757 Ry

        5.ATOM      Mn3                   5 CORE STATES
       CORE-FORCE in mRy/a.u. = |F|      Fx             Fy             Fz
:FCO005:   5.ATOM    164.093983737413      0.000000000000      0.000000000000    164.093983737413

:1S 005: 1S                -471.370103338 Ry
:2S 005: 2S                 -53.483124229 Ry
:2PP005: 2P*                -45.655226404 Ry
:2P 005: 2P                 -44.887027164 Ry
:3S 005: 3S                  -5.044077678 Ry

        6.ATOM      Mn4                   5 CORE STATES
       CORE-FORCE in mRy/a.u. = |F|      Fx             Fy             Fz
:FCO006:   6.ATOM    164.093983736856      0.000000000000      0.000000000000   -164.093983736856

:1S 006: 1S                -471.370103338 Ry
:2S 006: 2S                 -53.483124229 Ry
:2PP006: 2P*                -45.655226404 Ry
:2P 006: 2P                 -44.887027164 Ry
:3S 006: 3S                  -5.044077678 Ry
:CINT001 Core Integral Atom   1 Up    5.999554 Dn   5.999470 Total  11.999023
:CINT002 Core Integral Atom   2 Up    5.999554 Dn   5.999470 Total  11.999023
:CINT003 Core Integral Atom   3 Up   17.999300 Dn  17.999298 Total  35.998597
:CINT004 Core Integral Atom   4 Up   17.999300 Dn  17.999298 Total  35.998597
:CINT005 Core Integral Atom   5 Up    5.999568 Dn   5.999489 Total  11.999057
:CINT006 Core Integral Atom   6 Up    5.999568 Dn   5.999489 Total  11.999057

       DENSITY AT NUCLEUS
        JATOM        VALENCE       SEMI-CORE          CORE           TOTAL
:RTO001:   1        5.468066        0.000000    13329.547209    13335.015275
:RTO002:   2        5.468066        0.000000    13329.547209    13335.015275
:RTO003:   3       90.095528        0.000000   229672.773464   229762.868992
:RTO004:   4       90.095529        0.000000   229672.773464   229762.868993
:RTO005:   5        5.095261        0.000000    13329.722363    13334.817624
:RTO006:   6        5.095261        0.000000    13329.722363    13334.817624

       HYPERFINE FIELDS FOR THOMSON RADIUS
:HFF001:          249.753           0.000        -569.111        -319.358 (KGAUSS)
:HFF002:          249.753           0.000        -569.111        -319.358 (KGAUSS)
:HFF003:          296.373           0.000           3.577         299.951 (KGAUSS)
:HFF004:          296.373           0.000           3.577         299.951 (KGAUSS)
:HFF005:          251.344           0.000        -574.868        -323.524 (KGAUSS)
:HFF006:          251.344           0.000        -574.868        -323.524 (KGAUSS)
     
       CHARGES OF NEW CHARGE DENSITY
:NTO   : INTERSTITIAL     UP =     4.190969 DN =     4.019959 TOT =     8.210928
:NPC   : PW Pseudocharge  UP =     8.583581 DN =     7.152767 TOT =    15.736348
:NTO001: CHARGE SPHERE  1 UP =    13.917976 DN =    10.544539 TOT =    24.462515
:NTO002: CHARGE SPHERE  2 UP =    13.917976 DN =    10.544539 TOT =    24.462515
:NTO003: CHARGE SPHERE  3 UP =    24.275834 DN =    24.400477 TOT =    48.676311
:NTO004: CHARGE SPHERE  4 UP =    24.275834 DN =    24.400477 TOT =    48.676311
:NTO005: CHARGE SPHERE  5 UP =    13.869341 DN =     9.883026 TOT =    23.752367
:NTO006: CHARGE SPHERE  6 UP =    13.869341 DN =     9.883026 TOT =    23.752367

:NEC01: NUCLEAR AND ELECTRONIC CHARGE    202.00000   201.99332
     
       CHARGES OF OLD CHARGE DENSITY
:OTO   : INTERSTITIAL     UP =     4.391965 DN =     3.656365 TOT =     8.048330
:OPC   : PW Pseudocharge  UP =    15.309700 DN =     9.451876 TOT =    24.761576
:OTO001: CHARGE SPHERE  1 UP =    14.439769 DN =     9.627311 TOT =    24.067081
:OTO002: CHARGE SPHERE  2 UP =    14.439769 DN =     9.627311 TOT =    24.067081
:OTO003: CHARGE SPHERE  3 UP =    24.511832 DN =    24.504589 TOT =    49.016421
:OTO004: CHARGE SPHERE  4 UP =    24.511832 DN =    24.504589 TOT =    49.016421
:OTO005: CHARGE SPHERE  5 UP =    14.353990 DN =     9.542003 TOT =    23.895993
:OTO006: CHARGE SPHERE  6 UP =    14.353990 DN =     9.542003 TOT =    23.895993

:NEC02: NUCLEAR AND ELECTRONIC CHARGE    202.00000   202.00732
     
       CONVERGENCE TEST
:DTO001: DIFFERENCE SPHERE  1 UP =  0.5623280 DN =  0.7955950 TOT =  1.3579230
:DTO002: DIFFERENCE SPHERE  2 UP =  0.5623281 DN =  0.7955950 TOT =  1.3579231
:DTO003: DIFFERENCE SPHERE  3 UP =  0.1279569 DN =  0.0874765 TOT =  0.2154334
:DTO004: DIFFERENCE SPHERE  4 UP =  0.1279569 DN =  0.0874766 TOT =  0.2154335
:DTO005: DIFFERENCE SPHERE  5 UP =  0.4739652 DN =  0.3492874 TOT =  0.8232526
:DTO006: DIFFERENCE SPHERE  6 UP =  0.4739652 DN =  0.3492874 TOT =  0.8232526

:DIS  :  CHARGE DISTANCE       ( 0.7955950 for atom    1 spin 2)      1.5977394
 PW Mixed is          665
 
******************************************************
* MULTISECANT MIXING VER9 RELEASE 10.4.0              *
* Standard Mode with controls                        *
* Fixed density scale                                *
* Regularization       1.000E-04                     *
* Trust Upper Limit    5.000E+00                     *
* Max Number of Memory Steps    8                    *
******************************************************
 
:PWTMP   3.4441E+02  7.5000E+02  7.3711E+02
:PLANE:  PW TOTAL      5.5243 DISTAN   2.93E+00  5.31E+01 %
:CHARG:  CLM/ATOM    134.0230 DISTAN   2.74E-01  2.04E-01 %
INFO: Reducing dbase  2.50000E-02 1.59774E+00 1.97782E-02
 
Step History
        DMIX         DMIXT        Red     Pred      Trust     Lambda    MagRel    MagAbs     Beta
  1   3.5000E-02   3.5000E-02 -1.00E+00  1.00E+00 -1.00E+01  1.00E+00  3.50E-02  3.50E-02  1.00E+00
:INFO :  Note, Pratt in use
INFO: Reducing dbase  1.97782E-02 1.59774E+00 1.56471E-02
:TRUST:  Step 2.73E-02  Charge 7.50E-02 (e) CTO  2.50E-01 (e) PW  3.50E-01 (e)
:DIRM :  MEMORY  0/ 8 SCALE   1.000
Performing Pseudo Compensation
Final Pseudo Compensation Rescaling     9.99766E-01
Final Pseudo Compensation Rescaling     1.00051E+00
:MIX  :   PRATT  REGULARIZATION:  1.00E-04 GREED: 0.01819                  
     
       CHARGES OF MIXED CHARGE DENSITY
:CTO   : INTERSTITIAL     UP =     4.384449 DN =     3.659773 TOT =     8.044222
:CPC   : PW Pseudocharge  UP =    10.667377 DN =     7.572200 TOT =    18.239577
:CTO001: CHARGE SPHERE  1 UP =    14.430278 DN =     9.643995 TOT =    24.074274
:CTO002: CHARGE SPHERE  2 UP =    14.430278 DN =     9.643995 TOT =    24.074274
:CTO003: CHARGE SPHERE  3 UP =    24.507540 DN =    24.502695 TOT =    49.010235
:CTO004: CHARGE SPHERE  4 UP =    24.507540 DN =    24.502695 TOT =    49.010235
:CTO005: CHARGE SPHERE  5 UP =    14.345175 DN =     9.548206 TOT =    23.893381
:CTO006: CHARGE SPHERE  6 UP =    14.345175 DN =     9.548206 TOT =    23.893381

       SPIN MAGNETIC MOMENTS OF MIXED CHARGE DENSITY
:MMINT:  MAGNETIC MOMENT IN INTERSTITIAL  =    0.72468
:MMI001: MAGNETIC MOMENT IN SPHERE   1    =    4.78628
:MMI002: MAGNETIC MOMENT IN SPHERE   2    =    4.78628
:MMI003: MAGNETIC MOMENT IN SPHERE   3    =    0.00484
:MMI004: MAGNETIC MOMENT IN SPHERE   4    =    0.00484
:MMI005: MAGNETIC MOMENT IN SPHERE   5    =    4.79697
:MMI006: MAGNETIC MOMENT IN SPHERE   6    =    4.79697
:MMTOT:  SPIN MAGNETIC MOMENT IN CELL     =   19.90087

:NEC03: NUCLEAR AND ELECTRONIC CHARGE    202.00000   202.00000

PW CHANGE     H    K    L             Current                    Change               Residue
:PUP001:      0    0    0  2.04201465E-02 0.00000000E+00 -6.284E-03  0.000E+00 -9.359E-03  0.000E+00
:PUP002:      0    0   -1  1.84340966E-03 1.19234385E-18 -1.123E-03  1.192E-18 -1.248E-03  0.000E+00
:PUP003:      0    0    1  1.84340966E-03-1.19234385E-18 -1.123E-03 -1.192E-18 -1.248E-03  0.000E+00
:PUP006:     -1    0   -1  1.87570749E-17 2.75594663E-03  2.154E-17  4.909E-04  1.921E-17  6.282E-04
:PUP007:     -1    0    1  1.87570749E-17-2.75594663E-03  2.154E-17 -4.909E-04  1.921E-17 -6.282E-04
:PUP008:      0   -1   -1  1.13822692E-17-2.75594663E-03  1.138E-17 -4.909E-04  2.686E-17 -6.282E-04
:PUP009:      0   -1    1  1.13822692E-17 2.75594663E-03  1.138E-17  4.909E-04  2.686E-17  6.282E-04
:PUP010:      0    0   -2 -2.27850037E-03-1.08394895E-18  1.052E-03 -1.084E-18  1.357E-03  0.000E+00
:PUP011:      0    0    2 -2.27850037E-03 1.08394895E-18  1.052E-03  1.084E-18  1.357E-03  0.000E+00
:PUP012:     -1   -1    0 -9.22248588E-03-6.42893013E-19  5.370E-03 -6.429E-19  6.613E-03  0.000E+00
:PUP013:     -1   -1   -1  6.01136959E-03 0.00000000E+00 -8.312E-03  0.000E+00 -1.029E-02  0.000E+00
:PUP014:     -1   -1    1  6.01136959E-03 1.73431832E-18 -8.312E-03  1.734E-18 -1.029E-02  0.000E+00
  
:PDN001:      0    0    0  1.52379214E-02 0.00000000E+00 -2.529E-03  0.000E+00 -2.597E-03  0.000E+00
:PDN002:      0    0   -1  2.79598548E-04-1.11187780E-18  1.301E-04 -1.112E-18  1.229E-03  0.000E+00
:PDN003:      0    0    1  2.79598548E-04 1.11187780E-18  1.301E-04  1.112E-18  1.229E-03  0.000E+00
:PDN006:     -1    0   -1  2.73043629E-17 5.43567583E-03  2.806E-17 -2.040E-03  6.498E-17 -2.804E-03
:PDN007:     -1    0    1  2.73043629E-17-5.43567583E-03  2.806E-17  2.040E-03  6.498E-17  2.804E-03
:PDN008:      0   -1   -1 -1.51400175E-17-5.43567583E-03 -1.505E-17  2.040E-03 -4.147E-17  2.804E-03
:PDN009:      0   -1    1 -1.51400175E-17 5.43567583E-03 -1.505E-17 -2.040E-03 -4.147E-17 -2.804E-03
:PDN010:      0    0   -2 -2.44679319E-03-3.33563340E-18  1.260E-03 -3.336E-18  1.680E-03  0.000E+00
:PDN011:      0    0    2 -2.44679319E-03 3.33563340E-18  1.260E-03  3.336E-18  1.680E-03  0.000E+00
:PDN012:     -1   -1    0 -9.21429245E-03-6.45185477E-19  5.379E-03 -6.452E-19  6.104E-03  0.000E+00
:PDN013:     -1   -1   -1  2.46388815E-03-1.08475883E-19 -2.412E-03 -1.085E-19 -2.990E-03  0.000E+00
:PDN014:     -1   -1    1  2.46388815E-03 1.08475883E-19 -2.412E-03  1.085E-19 -2.990E-03  0.000E+00

:ENE  : ********** TOTAL ENERGY IN Ry =       -35203.62600630

       TOTAL FORCE IN mRy/a.u. = |F|     Fx             Fy             Fz     with/without FOR in case.in2
:FOR001:   1.ATOM          0.000          0.000          0.000         -0.000 partial forces
:FOR002:   2.ATOM          0.000          0.000          0.000         -0.000 partial forces
:FOR003:   3.ATOM        196.336          0.000          0.000        196.336 partial forces
:FOR004:   4.ATOM        196.336          0.000          0.000       -196.336 partial forces
:FOR005:   5.ATOM        161.170          0.000          0.000       -161.170 partial forces
:FOR006:   6.ATOM        161.170          0.000          0.000        161.170 partial forces
       TOTAL FORCE WITH RESPECT TO GLOBAL CARTESIAN COORDINATES:
:FCA001:   1.ATOM                         0.000          0.000         -0.000 partial forces
:FCA002:   2.ATOM                         0.000          0.000         -0.000 partial forces
:FCA003:   3.ATOM                         0.000          0.000        196.336 partial forces
:FCA004:   4.ATOM                         0.000          0.000       -196.336 partial forces
:FCA005:   5.ATOM                         0.000          0.000       -161.170 partial forces
:FCA006:   6.ATOM                         0.000          0.000        161.170 partial forces
       TOTAL FORCE WITH RESPECT TO THE GLOBAL COORDINATE SYSTEM:
:FGL001:   1.ATOM                 0.000000000     0.000000000    -0.000000005 partial forces
:FGL002:   2.ATOM                 0.000000000     0.000000000    -0.000000000 partial forces
:FGL003:   3.ATOM                 0.000000000     0.000000000   196.336252653 partial forces
:FGL004:   4.ATOM                 0.000000000     0.000000000  -196.336252641 partial forces
:FGL005:   5.ATOM                 0.000000000     0.000000000  -161.170396146 partial forces
:FGL006:   6.ATOM                 0.000000000     0.000000000   161.170396138 partial forces
 Flat Integration
 New Mode for Coulomb Integral
 Consistent 3/8+Simpson combinations
 Extension of core to zero
 LDM version in phi
 Fifth-order quadrature in outwin


            ---------
:ITE002:  2. ITERATION
            ---------

:NATO :    6 INDEPENDENT AND    6 TOTAL ATOMS IN UNITCELL
       SUBSTANCE: Mn2Sb (according to Wijngaard et al. '92)                   

       LATTICE                      = P   
:POT  : POTENTIAL OPTION EX_PBE EC_PBE VX_PBE VC_PBE
:LAT  : LATTICE CONSTANTS=  7.86420  7.86420 11.91849    1.571    1.571    1.571
:VOL  : UNIT CELL VOLUME =     737.10666
       MODE OF CALCULATION IS       = RELA
       SPINPOLARIZED CALCULATION
:IFFT  : FFT-parameters:   64   64   96 Factor: 2.00


   CONVERGENCE PARAMETER FOR PSEUDOCHARGE: NCON=  9
   MAXIMAL VALUE OF RMT(JATOM)*ABSK(NKK) : RK  =29.98999


:VKCOUL :  VK-COUL convergence: 0.170E-08
       ATOMNUMBER=  1 Mn1        VCOUL-ZERO =  0.44106E+00
:EFG001:                        EFG         =     0.01584   *10**21  V / m**2
                               V20  TOT/SRF=     0.01372     0.00664
                               V22  TOT/SRF=     0.00000     0.00000
                               V22M TOT/SRF=     0.00000     0.00000
                               V21  TOT/SRF=     0.00000     0.00000
                               V21M TOT/SRF=     0.00000     0.00000

             -0.00792    0.00000    0.00000       -0.00792    0.00000    0.00000
              0.00000   -0.00792    0.00000        0.00000   -0.00792    0.00000
              0.00000    0.00000    0.01584        0.00000    0.00000    0.01584

         MAIN DIRECTIONS OF THE EFG   1.0000  0.0000  0.0000
                                      0.0000  1.0000  0.0000
                                      0.0000  0.0000  1.0000
:ANG001:  ANGLE WITH OLD X-AXIS =         0.0

:ETA001:                         ASYMM. ETA =     0.00000


       ATOMNUMBER=  2 Mn2        VCOUL-ZERO =  0.44106E+00
:EFG002:                        EFG         =     0.01584   *10**21  V / m**2
                               V20  TOT/SRF=     0.01372     0.00664
                               V22  TOT/SRF=     0.00000    -0.00000
                               V22M TOT/SRF=     0.00000     0.00000
                               V21  TOT/SRF=     0.00000     0.00000
                               V21M TOT/SRF=     0.00000     0.00000

             -0.00792    0.00000    0.00000       -0.00792    0.00000    0.00000
              0.00000   -0.00792    0.00000        0.00000   -0.00792    0.00000
              0.00000    0.00000    0.01584        0.00000    0.00000    0.01584

         MAIN DIRECTIONS OF THE EFG   1.0000  0.0000  0.0000
                                      0.0000  1.0000  0.0000
                                      0.0000  0.0000  1.0000
:ANG002:  ANGLE WITH OLD X-AXIS =         0.0

:ETA002:                         ASYMM. ETA =     0.00000


       ATOMNUMBER=  3 Sb1        VCOUL-ZERO =  0.37877E+00
:EFG003:                        EFG         =    -0.17571   *10**21  V / m**2
                               V20  TOT/SRF=    -0.15217     0.04852
                               V22  TOT/SRF=     0.00000     0.00000
                               V22M TOT/SRF=     0.00000     0.00000
                               V21  TOT/SRF=     0.00000     0.00000
                               V21M TOT/SRF=     0.00000     0.00000

              0.08785    0.00000    0.00000        0.08785    0.00000    0.00000
              0.00000    0.08785    0.00000        0.00000    0.08785    0.00000
              0.00000    0.00000   -0.17571        0.00000    0.00000   -0.17571

         MAIN DIRECTIONS OF THE EFG   1.0000  0.0000  0.0000
                                      0.0000  1.0000  0.0000
                                      0.0000  0.0000  1.0000
:ANG003:  ANGLE WITH OLD X-AXIS =         0.0

:ETA003:                         ASYMM. ETA =     0.00000


       ATOMNUMBER=  4 Sb2        VCOUL-ZERO =  0.37877E+00
:EFG004:                        EFG         =    -0.17571   *10**21  V / m**2
                               V20  TOT/SRF=    -0.15217     0.04852
                               V22  TOT/SRF=    -0.00000    -0.00000
                               V22M TOT/SRF=     0.00000     0.00000
                               V21  TOT/SRF=     0.00000     0.00000
                               V21M TOT/SRF=     0.00000     0.00000

              0.08785    0.00000    0.00000        0.08785    0.00000    0.00000
              0.00000    0.08785    0.00000        0.00000    0.08785    0.00000
              0.00000    0.00000   -0.17571        0.00000    0.00000   -0.17571

         MAIN DIRECTIONS OF THE EFG   1.0000  0.0000  0.0000
                                      0.0000  1.0000  0.0000
                                      0.0000  0.0000  1.0000
:ANG004:  ANGLE WITH OLD X-AXIS =         0.0

:ETA004:                         ASYMM. ETA =     0.00000


       ATOMNUMBER=  5 Mn3        VCOUL-ZERO =  0.50350E+00
:EFG005:                        EFG         =    -0.04585   *10**21  V / m**2
                               V20  TOT/SRF=    -0.03970     0.06157
                               V22  TOT/SRF=     0.00000     0.00000
                               V22M TOT/SRF=     0.00000     0.00000
                               V21  TOT/SRF=     0.00000     0.00000
                               V21M TOT/SRF=     0.00000     0.00000

              0.02292    0.00000    0.00000        0.02292    0.00000    0.00000
              0.00000    0.02292    0.00000        0.00000    0.02292    0.00000
              0.00000    0.00000   -0.04585        0.00000    0.00000   -0.04585

         MAIN DIRECTIONS OF THE EFG   1.0000  0.0000  0.0000
                                      0.0000  1.0000  0.0000
                                      0.0000  0.0000  1.0000
:ANG005:  ANGLE WITH OLD X-AXIS =         0.0

:ETA005:                         ASYMM. ETA =     0.00000


       ATOMNUMBER=  6 Mn4        VCOUL-ZERO =  0.50350E+00
:EFG006:                        EFG         =    -0.04585   *10**21  V / m**2
                               V20  TOT/SRF=    -0.03970     0.06157
                               V22  TOT/SRF=     0.00000    -0.00000
                               V22M TOT/SRF=     0.00000     0.00000
                               V21  TOT/SRF=     0.00000     0.00000
                               V21M TOT/SRF=     0.00000     0.00000

              0.02292    0.00000    0.00000        0.02292    0.00000    0.00000
              0.00000    0.02292    0.00000        0.00000    0.02292    0.00000
              0.00000    0.00000   -0.04585        0.00000    0.00000   -0.04585

         MAIN DIRECTIONS OF THE EFG   1.0000  0.0000  0.0000
                                      0.0000  1.0000  0.0000
                                      0.0000  0.0000  1.0000
:ANG006:  ANGLE WITH OLD X-AXIS =         0.0

:ETA006:                         ASYMM. ETA =     0.00000


     HELLMANN-FEYNMAN-FORCE IN mRy/a.u. = |F|  Fx       Fy             Fz
:FHF001:   1.ATOM      0.000001057222      0.000000000000      0.000000000000      0.000001057222

     HELLMANN-FEYNMAN-FORCE IN mRy/a.u. = |F|  Fx       Fy             Fz
:FHF002:   2.ATOM      0.000001067285      0.000000000000      0.000000000000      0.000001067285

     HELLMANN-FEYNMAN-FORCE IN mRy/a.u. = |F|  Fx       Fy             Fz
:FHF003:   3.ATOM    648.499321888196      0.000000000000      0.000000000000    648.499321888196

     HELLMANN-FEYNMAN-FORCE IN mRy/a.u. = |F|  Fx       Fy             Fz
:FHF004:   4.ATOM    648.499321885325      0.000000000000      0.000000000000   -648.499321885325

     HELLMANN-FEYNMAN-FORCE IN mRy/a.u. = |F|  Fx       Fy             Fz
:FHF005:   5.ATOM    238.479546748771      0.000000000000      0.000000000000   -238.479546748771

     HELLMANN-FEYNMAN-FORCE IN mRy/a.u. = |F|  Fx       Fy             Fz
:FHF006:   6.ATOM    238.479545822896      0.000000000000      0.000000000000    238.479545822896

:FIT001: LUSE= 13 SIGMA OF V-XC FIT FOR ATOM  1  0.3495242E-02
:FIT001: LUSE= 13 SIGMA OF V-XC FIT FOR ATOM  1  0.5468125E-02
:FIT002: LUSE= 13 SIGMA OF V-XC FIT FOR ATOM  2  0.3495242E-02
:FIT002: LUSE= 13 SIGMA OF V-XC FIT FOR ATOM  2  0.5468125E-02
:FIT003: LUSE= 13 SIGMA OF V-XC FIT FOR ATOM  3  0.1037400E-02
:FIT003: LUSE= 13 SIGMA OF V-XC FIT FOR ATOM  3  0.9298376E-03
:FIT004: LUSE= 13 SIGMA OF V-XC FIT FOR ATOM  4  0.1037400E-02
:FIT004: LUSE= 13 SIGMA OF V-XC FIT FOR ATOM  4  0.9298376E-03
:FIT005: LUSE= 13 SIGMA OF V-XC FIT FOR ATOM  5  0.3401072E-02
:FIT005: LUSE= 13 SIGMA OF V-XC FIT FOR ATOM  5  0.6292572E-02
:FIT006: LUSE= 13 SIGMA OF V-XC FIT FOR ATOM  6  0.3401072E-02
:FIT006: LUSE= 13 SIGMA OF V-XC FIT FOR ATOM  6  0.6292572E-02
:DEN  : DENSITY INTEGRAL  =        -14127.00577295   (Ry)
       ELS_POTENTIAL_AT Z=0 and Z=0.5:  -0.32340   0.70846
       ELS_POTENTIAL_AT Y=0 and Y=0.5:  -0.50758  -0.50758
:VZERO:v0,v0c,v0x  -1.07247  -0.32340  -0.74907 v5,v5c,v5x   0.11540   0.70846  -0.59306
:VZERY:v0,v0c,v0x  -1.26483  -0.50758  -0.75724 v5,v5c,v5x  -1.26483  -0.50758  -0.75724
:VZERX:v0,v0c,v0x  -1.26483  -0.50758  -0.75724 v5,v5c,v5x  -1.26483  -0.50758  -0.75724
:LMAX-WF:   10   Non-Spherical LMAX:   4

          ATOMIC SPHERE DEPENDENT PARAMETERS FOR ATOM  Mn1       
:e__0001: OVERALL ENERGY PARAMETER IS    0.3435
          OVERALL BASIS SET ON ATOM IS LAPW
:E1_0001: E( 1)=    0.3435
             APW+lo
:E1_0001: E( 1)=   -3.1700   E(BOTTOM)=   -3.204   E(TOP)=   -3.136  1  2   159
             LOCAL ORBITAL
:E2_0001: E( 2)=    0.2956   E(BOTTOM)=    0.068   E(TOP)=    0.523  0  1   125
             APW+lo
:E0_0001: E( 0)=    0.3435
             APW+lo

          ATOMIC SPHERE DEPENDENT PARAMETERS FOR ATOM  Mn2       
:e__0002: OVERALL ENERGY PARAMETER IS    0.3435
          OVERALL BASIS SET ON ATOM IS LAPW
:E1_0002: E( 1)=    0.3435
             APW+lo
:E1_0002: E( 1)=   -3.1700   E(BOTTOM)=   -3.204   E(TOP)=   -3.136  1  2   159
             LOCAL ORBITAL
:E2_0002: E( 2)=    0.2956   E(BOTTOM)=    0.068   E(TOP)=    0.523  0  1   125
             APW+lo
:E0_0002: E( 0)=    0.3435
             APW+lo

          ATOMIC SPHERE DEPENDENT PARAMETERS FOR ATOM  Sb1       
:e__0003: OVERALL ENERGY PARAMETER IS    0.3435
          OVERALL BASIS SET ON ATOM IS LAPW
:E2_0003: E( 2)=    0.3435
             APW+lo
:E2_0003: E( 2)=   -1.5047   E(BOTTOM)=   -1.591   E(TOP)=   -1.418  1  2   161
             LOCAL ORBITAL
:E0_0003: E( 0)=    0.7435
             APW+lo
:E0_0003: E( 0)=   -0.6300   E(BOTTOM)=   -0.819   E(TOP)= -200.000  4 -1   144
             LOCAL ORBITAL
:E1_0003: E( 1)=    0.3435
             APW+lo

          ATOMIC SPHERE DEPENDENT PARAMETERS FOR ATOM  Sb2       
:e__0004: OVERALL ENERGY PARAMETER IS    0.3435
          OVERALL BASIS SET ON ATOM IS LAPW
:E2_0004: E( 2)=    0.3435
             APW+lo
:E2_0004: E( 2)=   -1.5047   E(BOTTOM)=   -1.591   E(TOP)=   -1.418  1  2   161
             LOCAL ORBITAL
:E0_0004: E( 0)=    0.7435
             APW+lo
:E0_0004: E( 0)=   -0.6300   E(BOTTOM)=   -0.819   E(TOP)= -200.000  4 -1   144
             LOCAL ORBITAL
:E1_0004: E( 1)=    0.3435
             APW+lo

          ATOMIC SPHERE DEPENDENT PARAMETERS FOR ATOM  Mn3       
:e__0005: OVERALL ENERGY PARAMETER IS    0.3435
          OVERALL BASIS SET ON ATOM IS LAPW
:E1_0005: E( 1)=    0.3435
             APW+lo
:E1_0005: E( 1)=   -3.1568   E(BOTTOM)=   -3.190   E(TOP)=   -3.123  1  2   162
             LOCAL ORBITAL
:E2_0005: E( 2)=    0.3178   E(BOTTOM)=    0.098   E(TOP)=    0.537  0  1   125
             APW+lo
:E0_0005: E( 0)=    0.3435
             APW+lo

          ATOMIC SPHERE DEPENDENT PARAMETERS FOR ATOM  Mn4       
:e__0006: OVERALL ENERGY PARAMETER IS    0.3435
          OVERALL BASIS SET ON ATOM IS LAPW
:E1_0006: E( 1)=    0.3435
             APW+lo
:E1_0006: E( 1)=   -3.1568   E(BOTTOM)=   -3.190   E(TOP)=   -3.123  1  2   162
             LOCAL ORBITAL
:E2_0006: E( 2)=    0.3178   E(BOTTOM)=    0.098   E(TOP)=    0.537  0  1   125
             APW+lo
:E0_0006: E( 0)=    0.3435
             APW+lo

       K=   0.03571   0.03571   0.05556            1
:RKM  : MATRIX SIZE   362LOs:  78  RKM= 6.99  WEIGHT= 8.00  PGR:    
       EIGENVALUES ARE:
:EIG00001:      -3.1651104   -3.1650196   -3.1642176   -3.1623481   -3.1605977
:EIG00006:      -3.1605329   -3.1515582   -3.1504698   -3.1483258   -3.1483188
:EIG00011:      -3.1482567   -3.1482399   -1.4876218   -1.4871989   -1.4859257
:EIG00016:      -1.4858746   -1.4855129   -1.4853091   -1.4838354   -1.4838146
:EIG00021:      -1.4833904   -1.4833396   -0.2979109   -0.1586596    0.0969966
:EIG00026:       0.1846897    0.2021220    0.2044845    0.2251979    0.2494378
:EIG00031:       0.2817574    0.2938202    0.2940044    0.3169051    0.3208816
:EIG00036:       0.3296164    0.3354558    0.3514277    0.3546509    0.3735653
:EIG00041:       0.3792505    0.3841592    0.3868056    0.3966704    0.4053069
:EIG00046:       0.4115983    0.4213766    0.5522249    0.6368382    0.6698715
 
:EIG00051:       0.7059021    0.7608812    0.8296610    0.9068386    0.9130810
:EIG00056:       0.9387875    1.0137703    1.0748028    1.0951005    1.1057800
:EIG00061:       1.2349094    1.2804608    1.3115954    1.3593690    1.3936230
:EIG00066:       1.4634531    1.4760998    1.4955809    1.5576922    1.5889222
:EIG00071:       1.5964768    1.5982400    1.6316430    1.6789110    1.6865516
:EIG00076:       1.8292378    1.8539496    1.8686641    2.0329233    2.0373290
       ********************************************************

:KPT   :      NUMBER OF K-POINTS:   245
:LMAX-WF:   10   Non-Spherical LMAX:   4

          ATOMIC SPHERE DEPENDENT PARAMETERS FOR ATOM  Mn1       
:e__0001: OVERALL ENERGY PARAMETER IS    0.3435
          OVERALL BASIS SET ON ATOM IS LAPW
:E1_0001: E( 1)=    0.3435
             APW+lo
:E1_0001: E( 1)=   -2.8061   E(BOTTOM)=   -2.845   E(TOP)=   -2.767  1  2   192
             LOCAL ORBITAL
:E2_0001: E( 2)=    0.6226   E(BOTTOM)=    0.357   E(TOP)=    0.888  0  1   129
             APW+lo
:E0_0001: E( 0)=    0.3435
             APW+lo

          ATOMIC SPHERE DEPENDENT PARAMETERS FOR ATOM  Mn2       
:e__0002: OVERALL ENERGY PARAMETER IS    0.3435
          OVERALL BASIS SET ON ATOM IS LAPW
:E1_0002: E( 1)=    0.3435
             APW+lo
:E1_0002: E( 1)=   -2.8061   E(BOTTOM)=   -2.845   E(TOP)=   -2.767  1  2   192
             LOCAL ORBITAL
:E2_0002: E( 2)=    0.6226   E(BOTTOM)=    0.357   E(TOP)=    0.888  0  1   129
             APW+lo
:E0_0002: E( 0)=    0.3435
             APW+lo

          ATOMIC SPHERE DEPENDENT PARAMETERS FOR ATOM  Sb1       
:e__0003: OVERALL ENERGY PARAMETER IS    0.3435
          OVERALL BASIS SET ON ATOM IS LAPW
:E2_0003: E( 2)=    0.3435
             APW+lo
:E2_0003: E( 2)=   -1.5054   E(BOTTOM)=   -1.592   E(TOP)=   -1.419  1  2   152
             LOCAL ORBITAL
:E0_0003: E( 0)=    0.7435
             APW+lo
:E0_0003: E( 0)=   -0.6300   E(BOTTOM)=   -0.824   E(TOP)= -200.000  4 -1   141
             LOCAL ORBITAL
:E1_0003: E( 1)=    0.3435
             APW+lo

          ATOMIC SPHERE DEPENDENT PARAMETERS FOR ATOM  Sb2       
:e__0004: OVERALL ENERGY PARAMETER IS    0.3435
          OVERALL BASIS SET ON ATOM IS LAPW
:E2_0004: E( 2)=    0.3435
             APW+lo
:E2_0004: E( 2)=   -1.5054   E(BOTTOM)=   -1.592   E(TOP)=   -1.419  1  2   152
             LOCAL ORBITAL
:E0_0004: E( 0)=    0.7435
             APW+lo
:E0_0004: E( 0)=   -0.6300   E(BOTTOM)=   -0.824   E(TOP)= -200.000  4 -1   141
             LOCAL ORBITAL
:E1_0004: E( 1)=    0.3435
             APW+lo

          ATOMIC SPHERE DEPENDENT PARAMETERS FOR ATOM  Mn3       
:e__0005: OVERALL ENERGY PARAMETER IS    0.3435
          OVERALL BASIS SET ON ATOM IS LAPW
:E1_0005: E( 1)=    0.3435
             APW+lo
:E1_0005: E( 1)=   -2.7909   E(BOTTOM)=   -2.828   E(TOP)=   -2.753  1  2   200
             LOCAL ORBITAL
:E2_0005: E( 2)=    0.6493   E(BOTTOM)=    0.395   E(TOP)=    0.904  0  1   126
             APW+lo
:E0_0005: E( 0)=    0.3435
             APW+lo

          ATOMIC SPHERE DEPENDENT PARAMETERS FOR ATOM  Mn4       
:e__0006: OVERALL ENERGY PARAMETER IS    0.3435
          OVERALL BASIS SET ON ATOM IS LAPW
:E1_0006: E( 1)=    0.3435
             APW+lo
:E1_0006: E( 1)=   -2.7909   E(BOTTOM)=   -2.828   E(TOP)=   -2.753  1  2   200
             LOCAL ORBITAL
:E2_0006: E( 2)=    0.6493   E(BOTTOM)=    0.395   E(TOP)=    0.904  0  1   126
             APW+lo
:E0_0006: E( 0)=    0.3435
             APW+lo

       K=   0.03571   0.03571   0.05556            1
:RKM  : MATRIX SIZE   362LOs:  78  RKM= 6.99  WEIGHT= 8.00  PGR:    
       EIGENVALUES ARE:
:EIG00001:      -2.8010025   -2.8008934   -2.7998490   -2.7974805   -2.7954168
:EIG00006:      -2.7953310   -2.7851615   -2.7838193   -2.7814469   -2.7814426
:EIG00011:      -2.7813588   -2.7813412   -1.4881171   -1.4876695   -1.4864061
:EIG00016:      -1.4863547   -1.4859949   -1.4857935   -1.4843994   -1.4843940
:EIG00021:      -1.4839884   -1.4838921   -0.2648336   -0.1343308    0.1654752
:EIG00026:       0.3617748    0.3928512    0.3933968    0.4012902    0.4091500
:EIG00031:       0.4860695    0.4905776    0.5004484    0.5303067    0.5720447
:EIG00036:       0.5736306    0.5859363    0.6529563    0.6671606    0.6742644
:EIG00041:       0.6765552    0.6926648    0.6957846    0.7064162    0.7139685
:EIG00046:       0.7332844    0.7456194    0.7517029    0.7582664    0.8230965
 
:EIG00051:       0.8294586    0.9484786    1.0160150    1.0310857    1.0311969
:EIG00056:       1.0700026    1.1349799    1.1655648    1.1830185    1.2064575
:EIG00061:       1.3422226    1.3623002    1.3885334    1.4094305    1.4805011
:EIG00066:       1.5259845    1.5511842    1.5566901    1.6508209    1.6626366
:EIG00071:       1.6667061    1.6943687    1.7170732    1.7480732    1.7571049
:EIG00076:       1.9059667    1.9492610    1.9573729
       ********************************************************

:KPT   :      NUMBER OF K-POINTS:   245
:GAP (global)   :    0.0    Ry =     0.0   eV (metal)
:GAP (this spin):    0.0    Ry =     0.0   eV (metal)
         Bandranges (emin - emax) and occupancy:
:BAN00040:  40    0.327772    0.373565  1.00000000
:BAN00041:  41    0.349169    0.380378  1.00000000
:BAN00042:  42    0.354032    0.387799  1.00000000
:BAN00043:  43    0.380104    0.400865  1.00000000
:BAN00044:  44    0.380546    0.410942  1.00000000
:BAN00045:  45    0.392791    0.461252  1.00000000
:BAN00046:  46    0.395763    0.490575  1.00000000
:BAN00047:  47    0.410146    0.619735  0.94334873
:BAN00048:  48    0.417070    0.638173  0.81663304
:BAN00049:  49    0.441602    0.669248  0.38070997
:BAN00050:  50    0.444245    0.699243  0.22237622
:BAN00051:  51    0.612689    0.816862  0.00000000
:BAN00052:  52    0.618713    0.853089  0.00000000
:BAN00053:  53    0.784410    0.915927  0.00000000
:BAN00054:  54    0.790013    0.959020  0.00000000
:BAN00055:  55    0.836102    1.214839  0.00000000
        Energy to separate low and high energystates:    0.01203


:NOE  : NUMBER OF ELECTRONS          =   82.000

:FER  : F E R M I - ENERGY(TETRAH.M.)=   0.5441797731
:GMA  : POTENTIAL AND CHARGE CUT-OFF  12.00 Ry**.5

:POS001: ATOM   -1 X,Y,Z = 0.00000 0.00000 0.00000  MULT= 1  ZZ= 25.000  Mn1       

       LMMAX 16
       LM=   0 0  1 0  2 0  2 2  3 0  3 2  4 0  4 2  4 4  5 0  5 2  5 4  6 0  6 2  6 4  6 6

:CHA001: TOTAL VALENCE CHARGE INSIDE SPHERE   1 =   7.8980    (RMT=  2.5000 )
:PCS001: PARTIAL CHARGES SPHERE =  1 S,P,D,F,PX,PY,PZ,D-Z2,D-X2Y2,D-XY,D-XZ,D-YZ 
:QTL001: 0.2164 3.2429 4.4216 0.0136 1.0793 1.0793 1.0842 0.9030 0.8908 0.8957 0.8661 0.8661
        Q-s-low E-s-low   Q-p-low E-p-low   Q-d-low E-d-low   Q-f-low E-f-low
:EPL001:  0.0513 -0.2291    3.0268 -3.1299    0.0307 -0.2216    0.0015 -0.6476
        Q-s-hi  E-s-hi    Q-p-hi  E-p-hi    Q-d-hi  E-d-hi    Q-f-hi  E-f-hi 
:EPH001:  0.1651  0.2042    0.2161  0.3020    4.3909  0.3173    0.0121  0.3311

                      VXX         VYY         VZZ       UP TO R
:VZZ001:            -0.02296    -0.02296     0.04591       2.500

:POS002: ATOM   -2 X,Y,Z = 0.50000 0.50000 0.00000  MULT= 1  ZZ= 25.000  Mn2       

       LMMAX 16
       LM=   0 0  1 0  2 0  2 2  3 0  3 2  4 0  4 2  4 4  5 0  5 2  5 4  6 0  6 2  6 4  6 6

:CHA002: TOTAL VALENCE CHARGE INSIDE SPHERE   2 =   7.8980    (RMT=  2.5000 )
:PCS002: PARTIAL CHARGES SPHERE =  2 S,P,D,F,PX,PY,PZ,D-Z2,D-X2Y2,D-XY,D-XZ,D-YZ 
:QTL002: 0.2164 3.2429 4.4216 0.0136 1.0793 1.0793 1.0842 0.9030 0.8908 0.8957 0.8661 0.8661
        Q-s-low E-s-low   Q-p-low E-p-low   Q-d-low E-d-low   Q-f-low E-f-low
:EPL002:  0.0513 -0.2291    3.0268 -3.1299    0.0307 -0.2216    0.0015 -0.6476
        Q-s-hi  E-s-hi    Q-p-hi  E-p-hi    Q-d-hi  E-d-hi    Q-f-hi  E-f-hi 
:EPH002:  0.1651  0.2042    0.2161  0.3020    4.3909  0.3173    0.0121  0.3311

                      VXX         VYY         VZZ       UP TO R
:VZZ002:            -0.02296    -0.02296     0.04591       2.500

:POS003: ATOM   -3 X,Y,Z = 0.00000 0.50000 0.28000  MULT= 1  ZZ= 51.000  Sb1       

       LMMAX 16
       LM=   0 0  1 0  2 0  2 2  3 0  3 2  4 0  4 2  4 4  5 0  5 2  5 4  6 0  6 2  6 4  6 6

:CHA003: TOTAL VALENCE CHARGE INSIDE SPHERE   3 =   6.2885    (RMT=  2.5000 )
:PCS003: PARTIAL CHARGES SPHERE =  3 S,P,D,F,PX,PY,PZ,D-Z2,D-X2Y2,D-XY,D-XZ,D-YZ 
:QTL003: 0.6084 0.6525 5.0093 0.0144 0.2089 0.2089 0.2348 1.0026 0.9997 1.0029 1.0020 1.0020
        Q-s-low E-s-low   Q-p-low E-p-low   Q-d-low E-d-low   Q-f-low E-f-low
:EPL003:  0.4996 -0.1819    0.0093 -0.2508    4.9563 -1.4848    0.0003 -1.1649
        Q-s-hi  E-s-hi    Q-p-hi  E-p-hi    Q-d-hi  E-d-hi    Q-f-hi  E-f-hi 
:EPH003:  0.1088  0.3182    0.6433  0.2876    0.0530  0.3160    0.0141  0.3266

                      VXX         VYY         VZZ       UP TO R
:VZZ003:             2.92645     2.92645    -5.85290       2.500

:POS004: ATOM   -4 X,Y,Z = 0.50000 0.00000 0.72000  MULT= 1  ZZ= 51.000  Sb2       

       LMMAX 16
       LM=   0 0  1 0  2 0  2 2  3 0  3 2  4 0  4 2  4 4  5 0  5 2  5 4  6 0  6 2  6 4  6 6

:CHA004: TOTAL VALENCE CHARGE INSIDE SPHERE   4 =   6.2885    (RMT=  2.5000 )
:PCS004: PARTIAL CHARGES SPHERE =  4 S,P,D,F,PX,PY,PZ,D-Z2,D-X2Y2,D-XY,D-XZ,D-YZ 
:QTL004: 0.6084 0.6525 5.0093 0.0144 0.2089 0.2089 0.2348 1.0026 0.9997 1.0029 1.0020 1.0020
        Q-s-low E-s-low   Q-p-low E-p-low   Q-d-low E-d-low   Q-f-low E-f-low
:EPL004:  0.4996 -0.1819    0.0093 -0.2508    4.9563 -1.4848    0.0003 -1.1649
        Q-s-hi  E-s-hi    Q-p-hi  E-p-hi    Q-d-hi  E-d-hi    Q-f-hi  E-f-hi 
:EPH004:  0.1088  0.3182    0.6433  0.2876    0.0530  0.3160    0.0141  0.3266

                      VXX         VYY         VZZ       UP TO R
:VZZ004:             2.92645     2.92645    -5.85290       2.500

:POS005: ATOM   -5 X,Y,Z = 0.00000 0.50000 0.70500  MULT= 1  ZZ= 25.000  Mn3       

       LMMAX 16
       LM=   0 0  1 0  2 0  2 2  3 0  3 2  4 0  4 2  4 4  5 0  5 2  5 4  6 0  6 2  6 4  6 6

:CHA005: TOTAL VALENCE CHARGE INSIDE SPHERE   5 =   7.8855    (RMT=  2.5000 )
:PCS005: PARTIAL CHARGES SPHERE =  5 S,P,D,F,PX,PY,PZ,D-Z2,D-X2Y2,D-XY,D-XZ,D-YZ 
:QTL005: 0.2042 3.1791 4.4903 0.0095 1.0547 1.0547 1.0697 0.8885 0.9063 0.8880 0.9038 0.9038
        Q-s-low E-s-low   Q-p-low E-p-low   Q-d-low E-d-low   Q-f-low E-f-low
:EPL005:  0.0244 -0.2341    3.0110 -3.1327    0.0187 -0.2166    0.0010 -0.5540
        Q-s-hi  E-s-hi    Q-p-hi  E-p-hi    Q-d-hi  E-d-hi    Q-f-hi  E-f-hi 
:EPH005:  0.1798  0.2399    0.1681  0.3231    4.4716  0.3421    0.0085  0.3214

                      VXX         VYY         VZZ       UP TO R
:VZZ005:             0.50579     0.50579    -1.01158       2.500

:POS006: ATOM   -6 X,Y,Z = 0.50000 0.00000 0.29500  MULT= 1  ZZ= 25.000  Mn4       

       LMMAX 16
       LM=   0 0  1 0  2 0  2 2  3 0  3 2  4 0  4 2  4 4  5 0  5 2  5 4  6 0  6 2  6 4  6 6

:CHA006: TOTAL VALENCE CHARGE INSIDE SPHERE   6 =   7.8855    (RMT=  2.5000 )
:PCS006: PARTIAL CHARGES SPHERE =  6 S,P,D,F,PX,PY,PZ,D-Z2,D-X2Y2,D-XY,D-XZ,D-YZ 
:QTL006: 0.2042 3.1791 4.4903 0.0095 1.0547 1.0547 1.0697 0.8885 0.9063 0.8880 0.9038 0.9038
        Q-s-low E-s-low   Q-p-low E-p-low   Q-d-low E-d-low   Q-f-low E-f-low
:EPL006:  0.0244 -0.2341    3.0110 -3.1327    0.0187 -0.2166    0.0010 -0.5540
        Q-s-hi  E-s-hi    Q-p-hi  E-p-hi    Q-d-hi  E-d-hi    Q-f-hi  E-f-hi 
:EPH006:  0.1798  0.2399    0.1681  0.3231    4.4716  0.3421    0.0085  0.3214

                      VXX         VYY         VZZ       UP TO R
:VZZ006:             0.50579     0.50579    -1.01158       2.500

:CHA  : TOTAL VALENCE CHARGE INSIDE UNIT CELL =      48.363068

:SUM  : SUM OF EIGENVALUES =         -45.395283132

:GAP (global)   :    0.0    Ry =     0.0   eV (metal)
:GAP (this spin):    0.0    Ry =     0.0   eV (metal)
         Bandranges (emin - emax) and occupancy:
:BAN00024:  24   -0.203875   -0.113335  1.00000000
:BAN00025:  25    0.131487    0.256470  1.00000000
:BAN00026:  26    0.131900    0.361775  1.00000000
:BAN00027:  27    0.234440    0.392851  1.00000000
:BAN00028:  28    0.276184    0.393397  1.00000000
:BAN00029:  29    0.309244    0.423228  1.00000000
:BAN00030:  30    0.315082    0.430825  1.00000000
:BAN00031:  31    0.415229    0.510596  1.00000000
:BAN00032:  32    0.416575    0.510628  1.00000000
:BAN00033:  33    0.468322    0.545366  0.99869800
:BAN00034:  34    0.475344    0.567110  0.63823405
:BAN00035:  35    0.550333    0.599210  0.00000000
:BAN00036:  36    0.569492    0.605638  0.00000000
:BAN00037:  37    0.580412    0.637132  0.00000000
:BAN00038:  38    0.611188    0.659729  0.00000000
:BAN00039:  39    0.616759    0.670212  0.00000000
        Energy to separate low and high energystates:    0.08149


:NOE  : NUMBER OF ELECTRONS          =   82.000

:FER  : F E R M I - ENERGY(TETRAH.M.)=   0.5441797731
:GMA  : POTENTIAL AND CHARGE CUT-OFF  12.00 Ry**.5

:POS001: ATOM   -1 X,Y,Z = 0.00000 0.00000 0.00000  MULT= 1  ZZ= 25.000  Mn1       

       LMMAX 16
       LM=   0 0  1 0  2 0  2 2  3 0  3 2  4 0  4 2  4 4  5 0  5 2  5 4  6 0  6 2  6 4  6 6

:CHA001: TOTAL VALENCE CHARGE INSIDE SPHERE   1 =   4.4847    (RMT=  2.5000 )
:PCS001: PARTIAL CHARGES SPHERE =  1 S,P,D,F,PX,PY,PZ,D-Z2,D-X2Y2,D-XY,D-XZ,D-YZ 
:QTL001: 0.1863 3.2148 1.0721 0.0097 1.0735 1.0735 1.0678 0.1815 0.1369 0.2892 0.2323 0.2323
        Q-s-low E-s-low   Q-p-low E-p-low   Q-d-low E-d-low   Q-f-low E-f-low
:EPL001:  0.0393 -0.2037    3.0211 -2.7725    0.0182 -0.2358    0.0016 -0.5821
        Q-s-hi  E-s-hi    Q-p-hi  E-p-hi    Q-d-hi  E-d-hi    Q-f-hi  E-f-hi 
:EPH001:  0.1470  0.2563    0.1938  0.3662    1.0539  0.4561    0.0081  0.4056

                      VXX         VYY         VZZ       UP TO R
:VZZ001:            -0.40267    -0.40267     0.80534       2.500

:POS002: ATOM   -2 X,Y,Z = 0.50000 0.50000 0.00000  MULT= 1  ZZ= 25.000  Mn2       

       LMMAX 16
       LM=   0 0  1 0  2 0  2 2  3 0  3 2  4 0  4 2  4 4  5 0  5 2  5 4  6 0  6 2  6 4  6 6

:CHA002: TOTAL VALENCE CHARGE INSIDE SPHERE   2 =   4.4847    (RMT=  2.5000 )
:PCS002: PARTIAL CHARGES SPHERE =  2 S,P,D,F,PX,PY,PZ,D-Z2,D-X2Y2,D-XY,D-XZ,D-YZ 
:QTL002: 0.1863 3.2148 1.0721 0.0097 1.0735 1.0735 1.0678 0.1815 0.1369 0.2892 0.2323 0.2323
        Q-s-low E-s-low   Q-p-low E-p-low   Q-d-low E-d-low   Q-f-low E-f-low
:EPL002:  0.0393 -0.2037    3.0211 -2.7725    0.0182 -0.2358    0.0016 -0.5821
        Q-s-hi  E-s-hi    Q-p-hi  E-p-hi    Q-d-hi  E-d-hi    Q-f-hi  E-f-hi 
:EPH002:  0.1470  0.2563    0.1938  0.3662    1.0539  0.4561    0.0081  0.4056

                      VXX         VYY         VZZ       UP TO R
:VZZ002:            -0.40267    -0.40267     0.80534       2.500

:POS003: ATOM   -3 X,Y,Z = 0.00000 0.50000 0.28000  MULT= 1  ZZ= 51.000  Sb1       

       LMMAX 16
       LM=   0 0  1 0  2 0  2 2  3 0  3 2  4 0  4 2  4 4  5 0  5 2  5 4  6 0  6 2  6 4  6 6

:CHA003: TOTAL VALENCE CHARGE INSIDE SPHERE   3 =   6.4093    (RMT=  2.5000 )
:PCS003: PARTIAL CHARGES SPHERE =  3 S,P,D,F,PX,PY,PZ,D-Z2,D-X2Y2,D-XY,D-XZ,D-YZ 
:QTL003: 0.6009 0.7986 5.0003 0.0082 0.2581 0.2581 0.2824 1.0021 0.9962 1.0023 0.9998 0.9998
        Q-s-low E-s-low   Q-p-low E-p-low   Q-d-low E-d-low   Q-f-low E-f-low
:EPL003:  0.5444 -0.1571    0.0079 -0.2505    4.9567 -1.4854    0.0003 -1.3407
        Q-s-hi  E-s-hi    Q-p-hi  E-p-hi    Q-d-hi  E-d-hi    Q-f-hi  E-f-hi 
:EPH003:  0.0564  0.2696    0.7907  0.3312    0.0436  0.4367    0.0079  0.4656

                      VXX         VYY         VZZ       UP TO R
:VZZ003:             2.92216     2.92216    -5.84433       2.500

:POS004: ATOM   -4 X,Y,Z = 0.50000 0.00000 0.72000  MULT= 1  ZZ= 51.000  Sb2       

       LMMAX 16
       LM=   0 0  1 0  2 0  2 2  3 0  3 2  4 0  4 2  4 4  5 0  5 2  5 4  6 0  6 2  6 4  6 6

:CHA004: TOTAL VALENCE CHARGE INSIDE SPHERE   4 =   6.4093    (RMT=  2.5000 )
:PCS004: PARTIAL CHARGES SPHERE =  4 S,P,D,F,PX,PY,PZ,D-Z2,D-X2Y2,D-XY,D-XZ,D-YZ 
:QTL004: 0.6009 0.7986 5.0003 0.0082 0.2581 0.2581 0.2824 1.0021 0.9962 1.0023 0.9998 0.9998
        Q-s-low E-s-low   Q-p-low E-p-low   Q-d-low E-d-low   Q-f-low E-f-low
:EPL004:  0.5444 -0.1571    0.0079 -0.2505    4.9567 -1.4854    0.0003 -1.3407
        Q-s-hi  E-s-hi    Q-p-hi  E-p-hi    Q-d-hi  E-d-hi    Q-f-hi  E-f-hi 
:EPH004:  0.0564  0.2696    0.7907  0.3312    0.0436  0.4367    0.0079  0.4656

                      VXX         VYY         VZZ       UP TO R
:VZZ004:             2.92216     2.92216    -5.84433       2.500

:POS005: ATOM   -5 X,Y,Z = 0.00000 0.50000 0.70500  MULT= 1  ZZ= 25.000  Mn3       

       LMMAX 16
       LM=   0 0  1 0  2 0  2 2  3 0  3 2  4 0  4 2  4 4  5 0  5 2  5 4  6 0  6 2  6 4  6 6

:CHA005: TOTAL VALENCE CHARGE INSIDE SPHERE   5 =   3.9140    (RMT=  2.5000 )
:PCS005: PARTIAL CHARGES SPHERE =  5 S,P,D,F,PX,PY,PZ,D-Z2,D-X2Y2,D-XY,D-XZ,D-YZ 
:QTL005: 0.1731 3.1527 0.5793 0.0073 1.0431 1.0431 1.0666 0.1542 0.0706 0.1054 0.1246 0.1246
        Q-s-low E-s-low   Q-p-low E-p-low   Q-d-low E-d-low   Q-f-low E-f-low
:EPL005:  0.0197 -0.2111    3.0082 -2.7692    0.0113 -0.2279    0.0011 -0.5194
        Q-s-hi  E-s-hi    Q-p-hi  E-p-hi    Q-d-hi  E-d-hi    Q-f-hi  E-f-hi 
:EPH005:  0.1534  0.3023    0.1446  0.3707    0.5680  0.4502    0.0063  0.3947

                      VXX         VYY         VZZ       UP TO R
:VZZ005:             1.94397     1.94397    -3.88793       2.500

:POS006: ATOM   -6 X,Y,Z = 0.50000 0.00000 0.29500  MULT= 1  ZZ= 25.000  Mn4       

       LMMAX 16
       LM=   0 0  1 0  2 0  2 2  3 0  3 2  4 0  4 2  4 4  5 0  5 2  5 4  6 0  6 2  6 4  6 6

:CHA006: TOTAL VALENCE CHARGE INSIDE SPHERE   6 =   3.9140    (RMT=  2.5000 )
:PCS006: PARTIAL CHARGES SPHERE =  6 S,P,D,F,PX,PY,PZ,D-Z2,D-X2Y2,D-XY,D-XZ,D-YZ 
:QTL006: 0.1731 3.1527 0.5793 0.0073 1.0431 1.0431 1.0666 0.1542 0.0706 0.1054 0.1246 0.1246
        Q-s-low E-s-low   Q-p-low E-p-low   Q-d-low E-d-low   Q-f-low E-f-low
[...]
:PCS004: PARTIAL CHARGES SPHERE =  4 S,P,D,F,PX,PY,PZ,D-Z2,D-X2Y2,D-XY,D-XZ,D-YZ 
:QTL004: 0.6044 0.8215 5.0025 0.0078 0.2663 0.2663 0.2889 1.0026 0.9968 1.0030 1.0000 1.0000
        Q-s-low E-s-low   Q-p-low E-p-low   Q-d-low E-d-low   Q-f-low E-f-low
:EPL004:  0.5549 -0.1665    0.0059 -0.2849    4.9576 -1.5124    0.0003 -1.3547
        Q-s-hi  E-s-hi    Q-p-hi  E-p-hi    Q-d-hi  E-d-hi    Q-f-hi  E-f-hi 
:EPH004:  0.0495  0.2636    0.8156  0.3248    0.0449  0.4496    0.0075  0.4710

                      VXX         VYY         VZZ       UP TO R
:VZZ004:             2.72659     2.72659    -5.45319       2.500

:POS005: ATOM   -5 X,Y,Z = 0.00000 0.50000 0.70500  MULT= 1  ZZ= 25.000  Mn3       

       LMMAX 16
       LM=   0 0  1 0  2 0  2 2  3 0  3 2  4 0  4 2  4 4  5 0  5 2  5 4  6 0  6 2  6 4  6 6

:CHA005: TOTAL VALENCE CHARGE INSIDE SPHERE   5 =   4.0030    (RMT=  2.5000 )
:PCS005: PARTIAL CHARGES SPHERE =  5 S,P,D,F,PX,PY,PZ,D-Z2,D-X2Y2,D-XY,D-XZ,D-YZ 
:QTL005: 0.1777 3.1529 0.6638 0.0071 1.0433 1.0433 1.0663 0.1673 0.0821 0.1167 0.1488 0.1488
        Q-s-low E-s-low   Q-p-low E-p-low   Q-d-low E-d-low   Q-f-low E-f-low
:EPL005:  0.0200 -0.2198    3.0086 -2.7807    0.0116 -0.2330    0.0011 -0.5203
        Q-s-hi  E-s-hi    Q-p-hi  E-p-hi    Q-d-hi  E-d-hi    Q-f-hi  E-f-hi 
:EPH005:  0.1577  0.3075    0.1443  0.3692    0.6522  0.4578    0.0060  0.3859

                      VXX         VYY         VZZ       UP TO R
:VZZ005:             2.08727     2.08727    -4.17453       2.500

:POS006: ATOM   -6 X,Y,Z = 0.50000 0.00000 0.29500  MULT= 1  ZZ= 25.000  Mn4       

       LMMAX 16
       LM=   0 0  1 0  2 0  2 2  3 0  3 2  4 0  4 2  4 4  5 0  5 2  5 4  6 0  6 2  6 4  6 6

:CHA006: TOTAL VALENCE CHARGE INSIDE SPHERE   6 =   4.0030    (RMT=  2.5000 )
:PCS006: PARTIAL CHARGES SPHERE =  6 S,P,D,F,PX,PY,PZ,D-Z2,D-X2Y2,D-XY,D-XZ,D-YZ 
:QTL006: 0.1777 3.1529 0.6638 0.0071 1.0433 1.0433 1.0663 0.1673 0.0821 0.1167 0.1488 0.1488
        Q-s-low E-s-low   Q-p-low E-p-low   Q-d-low E-d-low   Q-f-low E-f-low
:EPL006:  0.0200 -0.2198    3.0086 -2.7807    0.0116 -0.2330    0.0011 -0.5203
        Q-s-hi  E-s-hi    Q-p-hi  E-p-hi    Q-d-hi  E-d-hi    Q-f-hi  E-f-hi 
:EPH006:  0.1577  0.3075    0.1443  0.3692    0.6522  0.4578    0.0060  0.3859

                      VXX         VYY         VZZ       UP TO R
:VZZ006:             2.08727     2.08727    -4.17454       2.500

:CHA  : TOTAL VALENCE CHARGE INSIDE UNIT CELL =      33.605419

:SUM  : SUM OF EIGENVALUES =         -45.236731038


        1.ATOM      Mn1                   5 CORE STATES
       CORE-FORCE in mRy/a.u. = |F|      Fx             Fy             Fz
:FCO001:   1.ATOM      0.000003222562      0.000000000000      0.000000000000     -0.000003222562

:1S 001: 1S                -471.373155888 Ry
:2S 001: 2S                 -53.634765936 Ry
:2PP001: 2P*                -45.769191773 Ry
:2P 001: 2P                 -45.004056002 Ry
:3S 001: 3S                  -5.422767374 Ry

        2.ATOM      Mn2                   5 CORE STATES
       CORE-FORCE in mRy/a.u. = |F|      Fx             Fy             Fz
:FCO002:   2.ATOM      0.000003251786      0.000000000000      0.000000000000     -0.000003251786

:1S 002: 1S                -471.373155900 Ry
:2S 002: 2S                 -53.634765945 Ry
:2PP002: 2P*                -45.769191783 Ry
:2P 002: 2P                 -45.004056012 Ry
:3S 002: 3S                  -5.422767381 Ry

        3.ATOM      Sb1                  12 CORE STATES
       CORE-FORCE in mRy/a.u. = |F|      Fx             Fy             Fz
:FCO003:   3.ATOM    144.654523071745      0.000000000000      0.000000000000   -144.654523071745

:1S 003: 1S               -2224.953949492 Ry
:2S 003: 2S                -337.652148939 Ry
:2PP003: 2P*               -315.813372093 Ry
:2P 003: 2P                -297.305109367 Ry
:3S 003: 3S                 -65.427951780 Ry
:3PP003: 3P*                -56.504074737 Ry
:3P 003: 3P                 -53.088893107 Ry
:3DD003: 3D*                -37.337726090 Ry
:3D 003: 3D                 -36.628012183 Ry
:4S 003: 4S                  -9.973263770 Ry
:4PP003: 4P*                 -6.957454142 Ry
:4P 003: 4P                  -6.327083811 Ry

        4.ATOM      Sb2                  12 CORE STATES
       CORE-FORCE in mRy/a.u. = |F|      Fx             Fy             Fz
:FCO004:   4.ATOM    144.654523801568      0.000000000000      0.000000000000    144.654523801568

:1S 004: 1S               -2224.953949507 Ry
:2S 004: 2S                -337.652148954 Ry
:2PP004: 2P*               -315.813372108 Ry
:2P 004: 2P                -297.305109381 Ry
:3S 004: 3S                 -65.427951793 Ry
:3PP004: 3P*                -56.504074750 Ry
:3P 004: 3P                 -53.088893121 Ry
:3DD004: 3D*                -37.337726103 Ry
:3D 004: 3D                 -36.628012197 Ry
:4S 004: 4S                  -9.973263780 Ry
:4PP004: 4P*                 -6.957454152 Ry
:4P 004: 4P                  -6.327083821 Ry

        5.ATOM      Mn3                   5 CORE STATES
       CORE-FORCE in mRy/a.u. = |F|      Fx             Fy             Fz
:FCO005:   5.ATOM     49.058045832800      0.000000000000      0.000000000000    -49.058045832800

:1S 005: 1S                -471.410402001 Ry
:2S 005: 2S                 -53.671658148 Ry
:2PP005: 2P*                -45.806120462 Ry
:2P 005: 2P                 -45.040978597 Ry
:3S 005: 3S                  -5.450726364 Ry

        6.ATOM      Mn4                   5 CORE STATES
       CORE-FORCE in mRy/a.u. = |F|      Fx             Fy             Fz
:FCO006:   6.ATOM     49.058048316899      0.000000000000      0.000000000000     49.058048316899

:1S 006: 1S                -471.410402006 Ry
:2S 006: 2S                 -53.671658153 Ry
:2PP006: 2P*                -45.806120466 Ry
:2P 006: 2P                 -45.040978601 Ry
:3S 006: 3S                  -5.450726367 Ry

        1.ATOM      Mn1                   5 CORE STATES
       CORE-FORCE in mRy/a.u. = |F|      Fx             Fy             Fz
:FCO001:   1.ATOM      0.000003224195      0.000000000000      0.000000000000     -0.000003224195

:1S 001: 1S                -471.374062708 Ry
:2S 001: 2S                 -53.489098594 Ry
:2PP001: 2P*                -45.660465343 Ry
:2P 001: 2P                 -44.892325033 Ry
:3S 001: 3S                  -5.062323449 Ry

        2.ATOM      Mn2                   5 CORE STATES
       CORE-FORCE in mRy/a.u. = |F|      Fx             Fy             Fz
:FCO002:   2.ATOM      0.000003254897      0.000000000000      0.000000000000     -0.000003254897

:1S 002: 1S                -471.374062720 Ry
:2S 002: 2S                 -53.489098604 Ry
:2PP002: 2P*                -45.660465353 Ry
:2P 002: 2P                 -44.892325043 Ry
:3S 002: 3S                  -5.062323456 Ry

        3.ATOM      Sb1                  12 CORE STATES
       CORE-FORCE in mRy/a.u. = |F|      Fx             Fy             Fz
:FCO003:   3.ATOM    145.688108739400      0.000000000000      0.000000000000   -145.688108739400

:1S 003: 1S               -2224.954009267 Ry
:2S 003: 2S                -337.652174288 Ry
:2PP003: 2P*               -315.813426363 Ry
:2P 003: 2P                -297.305159707 Ry
:3S 003: 3S                 -65.428049535 Ry
:3PP003: 3P*                -56.504178303 Ry
:3P 003: 3P                 -53.088999802 Ry
:3DD003: 3D*                -37.337819940 Ry
:3D 003: 3D                 -36.628107495 Ry
:4S 003: 4S                  -9.973612099 Ry
:4PP003: 4P*                 -6.957842737 Ry
:4P 003: 4P                  -6.327496991 Ry

        4.ATOM      Sb2                  12 CORE STATES
       CORE-FORCE in mRy/a.u. = |F|      Fx             Fy             Fz
:FCO004:   4.ATOM    145.688109499979      0.000000000000      0.000000000000    145.688109499979

:1S 004: 1S               -2224.954009282 Ry
:2S 004: 2S                -337.652174303 Ry
:2PP004: 2P*               -315.813426378 Ry
:2P 004: 2P                -297.305159722 Ry
:3S 004: 3S                 -65.428049548 Ry
:3PP004: 3P*                -56.504178317 Ry
:3P 004: 3P                 -53.088999815 Ry
:3DD004: 3D*                -37.337819953 Ry
:3D 004: 3D                 -36.628107509 Ry
:4S 004: 4S                  -9.973612109 Ry
:4PP004: 4P*                 -6.957842748 Ry
:4P 004: 4P                  -6.327497001 Ry

        5.ATOM      Mn3                   5 CORE STATES
       CORE-FORCE in mRy/a.u. = |F|      Fx             Fy             Fz
:FCO005:   5.ATOM     47.623647370135      0.000000000000      0.000000000000    -47.623647370135

:1S 005: 1S                -471.411300503 Ry
:2S 005: 2S                 -53.524014808 Ry
:2PP005: 2P*                -45.695907836 Ry
:2P 005: 2P                 -44.927721571 Ry
:3S 005: 3S                  -5.084272620 Ry

        6.ATOM      Mn4                   5 CORE STATES
       CORE-FORCE in mRy/a.u. = |F|      Fx             Fy             Fz
:FCO006:   6.ATOM     47.623649882118      0.000000000000      0.000000000000     47.623649882118

:1S 006: 1S                -471.411300508 Ry
:2S 006: 2S                 -53.524014812 Ry
:2PP006: 2P*                -45.695907840 Ry
:2P 006: 2P                 -44.927721576 Ry
:3S 006: 3S                  -5.084272623 Ry
:CINT001 Core Integral Atom   1 Up    5.999549 Dn   5.999466 Total  11.999015
:CINT002 Core Integral Atom   2 Up    5.999549 Dn   5.999466 Total  11.999015
:CINT003 Core Integral Atom   3 Up   17.999308 Dn  17.999306 Total  35.998614
:CINT004 Core Integral Atom   4 Up   17.999308 Dn  17.999306 Total  35.998614
:CINT005 Core Integral Atom   5 Up    5.999568 Dn   5.999492 Total  11.999060
:CINT006 Core Integral Atom   6 Up    5.999568 Dn   5.999492 Total  11.999060

       DENSITY AT NUCLEUS
        JATOM        VALENCE       SEMI-CORE          CORE           TOTAL
:RTO001:   1        5.214453        0.000000    13329.503754    13334.718207
:RTO002:   2        5.214453        0.000000    13329.503754    13334.718207
:RTO003:   3       91.224675        0.000000   229673.572482   229764.797158
:RTO004:   4       91.224677        0.000000   229673.572483   229764.797160
:RTO005:   5        5.278202        0.000000    13329.814378    13335.092580
:RTO006:   6        5.278202        0.000000    13329.814378    13335.092580

       HYPERFINE FIELDS FOR THOMSON RADIUS
:HFF001:          219.801           0.000        -545.653        -325.852 (KGAUSS)
:HFF002:          219.801           0.000        -545.653        -325.852 (KGAUSS)
:HFF003:          326.898           0.000           2.892         329.790 (KGAUSS)
:HFF004:          326.898           0.000           2.892         329.790 (KGAUSS)
:HFF005:          250.636           0.000        -561.294        -310.659 (KGAUSS)
:HFF006:          250.636           0.000        -561.294        -310.659 (KGAUSS)
     
       CHARGES OF NEW CHARGE DENSITY
:NTO   : INTERSTITIAL     UP =     4.277856 DN =     4.049048 TOT =     8.326904
:NPC   : PW Pseudocharge  UP =     8.699584 DN =     7.185578 TOT =    15.885162
:NTO001: CHARGE SPHERE  1 UP =    13.819996 DN =    10.337320 TOT =    24.157316
:NTO002: CHARGE SPHERE  2 UP =    13.819996 DN =    10.337320 TOT =    24.157316
:NTO003: CHARGE SPHERE  3 UP =    24.325423 DN =    24.436667 TOT =    48.762090
:NTO004: CHARGE SPHERE  4 UP =    24.325423 DN =    24.436667 TOT =    48.762090
:NTO005: CHARGE SPHERE  5 UP =    13.911354 DN =    10.002457 TOT =    23.913812
:NTO006: CHARGE SPHERE  6 UP =    13.911354 DN =    10.002457 TOT =    23.913812

:NEC01: NUCLEAR AND ELECTRONIC CHARGE    202.00000   201.99334
     
       CHARGES OF OLD CHARGE DENSITY
:OTO   : INTERSTITIAL     UP =     4.369092 DN =     3.704399 TOT =     8.073491
:OPC   : PW Pseudocharge  UP =    10.432599 DN =     7.525714 TOT =    17.958313
:OTO001: CHARGE SPHERE  1 UP =    14.362946 DN =     9.732834 TOT =    24.095779
:OTO002: CHARGE SPHERE  2 UP =    14.362946 DN =     9.732834 TOT =    24.095779
:OTO003: CHARGE SPHERE  3 UP =    24.483936 DN =    24.493219 TOT =    48.977155
:OTO004: CHARGE SPHERE  4 UP =    24.483936 DN =    24.493219 TOT =    48.977155
:OTO005: CHARGE SPHERE  5 UP =    14.293156 DN =     9.597164 TOT =    23.890320
:OTO006: CHARGE SPHERE  6 UP =    14.293156 DN =     9.597164 TOT =    23.890320

:NEC02: NUCLEAR AND ELECTRONIC CHARGE    202.00000   202.00000
     
       CONVERGENCE TEST
:DTO001: DIFFERENCE SPHERE  1 UP =  0.5917299 DN =  0.5340956 TOT =  1.1258255
:DTO002: DIFFERENCE SPHERE  2 UP =  0.5917299 DN =  0.5340956 TOT =  1.1258255
:DTO003: DIFFERENCE SPHERE  3 UP =  0.0854802 DN =  0.0599420 TOT =  0.1454222
:DTO004: DIFFERENCE SPHERE  4 UP =  0.0854802 DN =  0.0599420 TOT =  0.1454223
:DTO005: DIFFERENCE SPHERE  5 UP =  0.3779804 DN =  0.3944591 TOT =  0.7724395
:DTO006: DIFFERENCE SPHERE  6 UP =  0.3779804 DN =  0.3944591 TOT =  0.7724395

:DIS  :  CHARGE DISTANCE       ( 0.5917299 for atom    2 spin 1)      1.3624582
 PW Mixed is          665
 
******************************************************
* MULTISECANT MIXING VER9 RELEASE 10.4.0              *
* Slow Mode, cautious                                *
* Fixed density scale                                *
* Regularization       1.000E-04                     *
* Step Trust Radius    0.75000                       *
* Trust Upper Limit    2.000E+00                     *
* Max Number of Memory Steps   12                    *
******************************************************
 
:PWTMP   3.4441E+02  7.5000E+02  7.3711E+02
:PLANE:  PW TOTAL      3.7998 DISTAN   6.11E-01  1.61E+01 %
:CHARG:  CLM/ATOM    134.0203 DISTAN   2.31E-01  1.73E-01 %
INFO: Reducing dbase  1.00000E-02 1.36246E+00 8.56719E-03
 :WARNING:  ERROR in reading files, restarted
 
Step History
        DMIX         DMIXT        Red     Pred      Trust     Lambda    MagRel    MagAbs     Beta
  1   2.2358E-02   3.5000E-02 -1.00E+00  1.00E+00 -1.00E+01  1.00E+00  3.50E-02  3.50E-02  1.00E+00
:INFO :  Note, Pratt in use
INFO: Reducing dbase  8.56719E-03 1.36246E+00 7.33967E-03
:TRUST:  Step 3.47E-02  Charge 7.50E-02 (e) CTO  2.50E-01 (e) PW  3.50E-01 (e)
:DIRM :  MEMORY  0/12 SCALE   1.000
:MIX  :   PRATT  REGULARIZATION:  1.00E-04 GREED: 0.02311                  
     
       CHARGES OF MIXED CHARGE DENSITY
:CTO   : INTERSTITIAL     UP =     4.367062 DN =     3.712439 TOT =     8.079501
:CPC   : PW Pseudocharge  UP =    10.392710 DN =     7.517986 TOT =    17.910696
:CTO001: CHARGE SPHERE  1 UP =    14.350398 DN =     9.746804 TOT =    24.097201
:CTO002: CHARGE SPHERE  2 UP =    14.350398 DN =     9.746804 TOT =    24.097201
:CTO003: CHARGE SPHERE  3 UP =    24.480273 DN =    24.491912 TOT =    48.972185
:CTO004: CHARGE SPHERE  4 UP =    24.480273 DN =    24.491912 TOT =    48.972185
:CTO005: CHARGE SPHERE  5 UP =    14.284332 DN =     9.606531 TOT =    23.890863
:CTO006: CHARGE SPHERE  6 UP =    14.284332 DN =     9.606531 TOT =    23.890863

       SPIN MAGNETIC MOMENTS OF MIXED CHARGE DENSITY
:MMINT:  MAGNETIC MOMENT IN INTERSTITIAL  =    0.65462
:MMI001: MAGNETIC MOMENT IN SPHERE   1    =    4.60359
:MMI002: MAGNETIC MOMENT IN SPHERE   2    =    4.60359
:MMI003: MAGNETIC MOMENT IN SPHERE   3    =   -0.01164
:MMI004: MAGNETIC MOMENT IN SPHERE   4    =   -0.01164
:MMI005: MAGNETIC MOMENT IN SPHERE   5    =    4.67780
:MMI006: MAGNETIC MOMENT IN SPHERE   6    =    4.67780
:MMTOT:  SPIN MAGNETIC MOMENT IN CELL     =   19.19414

:NEC03: NUCLEAR AND ELECTRONIC CHARGE    202.00000   202.00000

PW CHANGE     H    K    L             Current                    Change               Residue
:PUP001:      0    0    0  2.00239295E-02 0.00000000E+00 -5.687E-05  0.000E+00 -2.461E-03  0.000E+00
:PUP002:      0    0   -1  1.80132408E-03-1.31832870E-12 -8.490E-06 -3.373E-13 -3.674E-04 -1.459E-11
:PUP003:      0    0    1  1.80132408E-03 1.31832870E-12 -8.490E-06  3.373E-13 -3.674E-04  1.459E-11
:PUP004:     -1    0    0 -1.39479282E-12 0.00000000E+00 -3.447E-13  0.000E+00 -1.492E-11  0.000E+00
:PUP005:      0   -1    0  1.80437479E-12 0.00000000E+00  4.477E-13  0.000E+00  1.937E-11  0.000E+00
:PUP006:     -1    0   -1  3.21830233E-13 2.78821959E-03  7.739E-14  5.986E-06  3.349E-12  2.590E-04
:PUP007:     -1    0    1  3.21830233E-13-2.78821959E-03  7.739E-14 -5.986E-06  3.349E-12 -2.590E-04
:PUP008:      0   -1   -1 -8.70498504E-14-2.78821959E-03 -2.332E-14 -5.986E-06 -1.009E-12 -2.590E-04
:PUP009:      0   -1    1 -8.70498504E-14 2.78821959E-03 -2.332E-14  5.986E-06 -1.009E-12  2.590E-04
:PUP010:      0    0   -2 -2.24193339E-03 2.06610968E-13  4.889E-06  5.432E-14  2.115E-04  2.350E-12
:PUP011:      0    0    2 -2.24193339E-03-2.06610968E-13  4.889E-06 -5.432E-14  2.115E-04 -2.350E-12
:PUP012:     -1   -1    0 -9.07804796E-03 0.00000000E+00  1.925E-05  0.000E+00  8.329E-04  0.000E+00
  
:PDN001:      0    0    0  1.52358207E-02 0.00000000E+00  4.232E-07  0.000E+00  1.831E-05  0.000E+00
:PDN002:      0    0   -1  3.92200537E-04-4.55262735E-13  1.384E-05 -1.255E-13  5.988E-04 -5.428E-12
:PDN003:      0    0    1  3.92200537E-04 4.55262735E-13  1.384E-05  1.255E-13  5.988E-04  5.428E-12
:PDN004:     -1    0    0 -4.52666891E-12 0.00000000E+00 -1.039E-12  0.000E+00 -4.497E-11  0.000E+00
:PDN006:     -1    0   -1 -1.35456578E-12 5.33398612E-03 -2.800E-13 -1.454E-05 -1.211E-11 -6.293E-04
:PDN007:     -1    0    1 -1.35456578E-12-5.33398612E-03 -2.800E-13  1.454E-05 -1.211E-11  6.293E-04
:PDN008:      0   -1   -1 -1.71338746E-12-5.33398612E-03 -3.750E-13  1.454E-05 -1.623E-11  6.293E-04
:PDN009:      0   -1    1 -1.71338746E-12 5.33398612E-03 -3.750E-13 -1.454E-05 -1.623E-11 -6.293E-04
:PDN010:      0    0   -2 -2.40183978E-03 2.43648754E-13  5.786E-06  5.955E-14  2.504E-04  2.577E-12
:PDN011:      0    0    2 -2.40183978E-03-2.43648754E-13  5.786E-06 -5.955E-14  2.504E-04 -2.577E-12
:PDN012:     -1   -1    0 -9.15386612E-03 0.00000000E+00  6.387E-06  0.000E+00  2.764E-04  0.000E+00
:PDN013:     -1   -1   -1  2.38439477E-03 1.19443875E-12 -1.139E-05  3.049E-13 -4.929E-04  1.319E-11

:ENE  : *WARNING** TOTAL ENERGY IN Ry =       -35203.59620084

       TOTAL FORCE IN mRy/a.u. = |F|     Fx             Fy             Fz     with/without FOR in case.in2
:FOR001:   1.ATOM          0.000          0.000          0.000          0.000 partial forces
:FOR002:   2.ATOM          0.000          0.000          0.000          0.000 partial forces
:FOR003:   3.ATOM         14.063          0.000          0.000        -14.063 partial forces
:FOR004:   4.ATOM         14.063          0.000          0.000         14.063 partial forces
:FOR005:   5.ATOM         54.854          0.000          0.000         54.854 partial forces
:FOR006:   6.ATOM         54.854          0.000          0.000        -54.854 partial forces
       TOTAL FORCE WITH RESPECT TO GLOBAL CARTESIAN COORDINATES:
:FCA001:   1.ATOM                         0.000          0.000          0.000 partial forces
:FCA002:   2.ATOM                         0.000          0.000          0.000 partial forces
:FCA003:   3.ATOM                         0.000          0.000        -14.063 partial forces
:FCA004:   4.ATOM                         0.000          0.000         14.063 partial forces
:FCA005:   5.ATOM                         0.000          0.000         54.854 partial forces
:FCA006:   6.ATOM                         0.000          0.000        -54.854 partial forces
       TOTAL FORCE WITH RESPECT TO THE GLOBAL COORDINATE SYSTEM:
:FGL001:   1.ATOM                 0.000000000     0.000000000     0.000003598 partial forces
:FGL002:   2.ATOM                 0.000000000     0.000000000     0.000003627 partial forces
:FGL003:   3.ATOM                 0.000000000     0.000000000   -14.063267764 partial forces
:FGL004:   4.ATOM                 0.000000000     0.000000000    14.063267352 partial forces
:FGL005:   5.ATOM                 0.000000000     0.000000000    54.853683544 partial forces
:FGL006:   6.ATOM                 0.000000000     0.000000000   -54.853686567 partial forces
