
:LABEL1: Calculations in /home/vybornyk/shed/026/quartz/sio2
:LABEL2: on serv-031 at Fri Jun 14 07:35:55 PM CEST 2024
:LABEL3: using WIEN2k_23.2 (Release 9/3/2022) in /home/vybornyk/wien2k

:LABEL4: using the command: run_lapw

 Euler-Maclaurian Coulomb
 Consistent 3/8+Simpson combinations at start/end
 New Mode for Coulomb Integral
 Extension of core to zero
 LDM version in phi
 Fifth-order quadrature in outwin
 Lebedev-Laikov Grid in lapw0


            ---------
:ITE001:  1. ITERATION
            ---------

:NATO :    2 INDEPENDENT AND    9 TOTAL ATOMS IN UNITCELL
       SUBSTANCE: SiO2 for tests                                              

       LATTICE                      = H   
:LAT  : LATTICE CONSTANTS=  9.26193  9.26193 10.21737
:VOL  : UNIT CELL VOLUME =     759.05354
:POT  : POTENTIAL OPTION EX_PBE EC_PBE VX_PBE VC_PBE
       MODE OF CALCULATION IS       = RELA
       NON-SPINPOLARIZED CALCULATION
:IFFT  : FFT-parameters:   72   72   80 Factor: 2.00


   CONVERGENCE PARAMETER FOR PSEUDOCHARGE: NCON=  9
   MAXIMAL VALUE OF RMT(JATOM)*ABSK(NKK) : RK  =18.11505


:VKCOUL :  VK-COUL convergence: 0.255E-05
 Lebedev grid of          350
 Lebedev grid of          350
 :rho_min:  2.000000000000000E-008  1.000000000000000E-009
:VCOUL001 ATOMNUMBER=  1 Si      VCOUL-ZERO = -0.10889E+01
:EFG001:                        EFG         =     0.02022   *10**21  V / m**2
                               V20  TOT/SRF=    -0.01365    -0.01608
                               V22  TOT/SRF=     0.00023     0.00456
                               V22M TOT/SRF=    -0.01234    -0.02200
                               V21  TOT/SRF=     0.00000     0.00000
                               V21M TOT/SRF=     0.00000     0.00000

              0.00811   -0.01234    0.00000        0.02022    0.00000    0.00000
             -0.01234    0.00765    0.00000        0.00000   -0.00446    0.00000
              0.00000    0.00000   -0.01576        0.00000    0.00000   -0.01576

         MAIN DIRECTIONS OF THE EFG   1.0000  0.9815  0.0000
                                     -0.9815  1.0000  0.0000
                                      0.0000  0.0000  1.0000
:ANG001:  ANGLE WITH OLD X-AXIS =        44.5

:ETA001:                         ASYMM. ETA =     0.55894


:VCOUL002 ATOMNUMBER=  2 O       VCOUL-ZERO = -0.17031E+00
:EFG002:                        EFG         =     2.33976   *10**21  V / m**2
                               V20  TOT/SRF=     0.01776     0.02194
                               V22  TOT/SRF=     0.46612     0.56723
                               V22M TOT/SRF=    -1.03088    -1.25550
                               V21  TOT/SRF=    -1.27051    -1.54691
                               V21M TOT/SRF=     1.11954     1.36359

              0.45586   -1.03088   -1.27051        2.33976    0.00000    0.00000
             -1.03088   -0.47637    1.11954        0.00000   -0.96493    0.00000
             -1.27051    1.11954    0.02051        0.00000    0.00000   -1.37482

         MAIN DIRECTIONS OF THE EFG   1.0000  1.0000  0.0171
                                     -0.7225  0.5266  1.0000
                                     -0.8966  0.6910 -0.7868
:ANG002:  ANGLE WITH OLD X-AXIS =        45.0

:ETA002:                         ASYMM. ETA =     0.17518


     HELLMANN-FEYNMAN-FORCE IN mRy/a.u. = |F|  Fx       Fy             Fz
:FHF001:   1.ATOM      0.605051078054      0.000000000000      0.000000000000     -0.605051078054

     HELLMANN-FEYNMAN-FORCE IN mRy/a.u. = |F|  Fx       Fy             Fz
:FHF002:   2.ATOM   1081.472684420309   -835.288186864020   -428.129066165328   -537.198580356550

:FIT001: LUSE= 13 SIGMA OF V-XC FIT FOR ATOM  1  0.4929392E-02
:FIT001: LUSE= 13 SIGMA OF V-XC FIT FOR ATOM  1  0.4929392E-02
:FIT002: LUSE= 13 SIGMA OF V-XC FIT FOR ATOM  2  0.5013118E-03
:FIT002: LUSE= 13 SIGMA OF V-XC FIT FOR ATOM  2  0.5013118E-03
:DEN  : DENSITY INTEGRAL  =         -1214.37328937   (Ry)
       ELS_POTENTIAL_AT Z=0 and Z=0.5:   0.03932  -0.07248
       ELS_POTENTIAL_AT Y=0 and Y=0.5:   0.00000   0.00000
:VZERO:v0,v0c,v0x  -0.69762   0.03932  -0.73694 v5,v5c,v5x  -0.75988  -0.07248  -0.68740
:VZERY:v0,v0c,v0x  -0.70931   0.00000  -0.70931 v5,v5c,v5x  -0.70931   0.00000  -0.70931
:VZERX:v0,v0c,v0x  -0.11810   0.30786  -0.42596 v5,v5c,v5x  -2.53006  -1.58970  -0.94036
:LMAX-WF:   10   Non-Spherical LMAX:   4

          ATOMIC SPHERE DEPENDENT PARAMETERS FOR ATOM  Si        
:e__0001: OVERALL ENERGY PARAMETER IS    0.3000
          OVERALL BASIS SET ON ATOM IS LAPW
:E0_0001: E( 0)=    0.3000
             APW+lo
:E1_0001: E( 1)=    0.3000
             APW+lo

          ATOMIC SPHERE DEPENDENT PARAMETERS FOR ATOM  O         
:e__0002: OVERALL ENERGY PARAMETER IS    0.3000
          OVERALL BASIS SET ON ATOM IS LAPW
:E0_0002: E( 0)=    0.7000
             APW+lo
:E0_0002: E( 0)=   -1.1863   E(BOTTOM)=   -2.834   E(TOP)=    0.462  1  2   267
             LOCAL ORBITAL
:E1_0002: E( 1)=    0.3000
             APW+lo

       K=  0.000000  0.000000  0.000000            1
:RKM  : MATRIX SIZE  1317LOs:  42  RKM= 6.98  WEIGHT= 1.00  PGR:    
       EIGENVALUES ARE:
:EIG00001:      -1.5257741   -1.4332151   -1.4332151   -1.3952898   -1.3941267
:EIG00006:      -1.3941267   -0.6650996   -0.6650996   -0.4882634   -0.4834104
:EIG00011:      -0.4715421   -0.4715421   -0.2984566   -0.2984566   -0.2869041
:EIG00016:      -0.2702463   -0.2231019   -0.2231019   -0.2208335   -0.1884126
:EIG00021:      -0.1884126   -0.1705767   -0.1467783   -0.1467783    0.4573737
:EIG00026:       0.7313345    0.7313345    0.7467374    0.7467375    0.8516845
:EIG00031:       0.8611478    0.9262593    0.9383234    0.9383234    0.9599404
:EIG00036:       0.9599404    1.0382112    1.1300259    1.1420248    1.1420248
:EIG00041:       1.1573320    1.1573320    1.2718298    1.2718298    1.3643713
:EIG00046:       1.4110104    1.4110104    1.5271442    1.5271442    1.6101209
 
:EIG00051:       1.6182771    1.6182771    1.6844483    1.8106365    1.8106365
:EIG00056:       1.8221230    1.8967448    1.9092487    1.9092487    1.9385502
       ********************************************************

:KPT   :      NUMBER OF K-POINTS:   284
       Insulator, EF-inconsistency corrected
:GAP (global)   :  0.589557 Ry =     8.021 eV (accurate value if proper k-mesh)
         Bandranges (emin - emax) and occupancy:
:BAN00014:  14   -0.311186   -0.282918  2.00000000
:BAN00015:  15   -0.293294   -0.270899  2.00000000
:BAN00016:  16   -0.273534   -0.245842  2.00000000
:BAN00017:  17   -0.256791   -0.223102  2.00000000
:BAN00018:  18   -0.245175   -0.218102  2.00000000
:BAN00019:  19   -0.238125   -0.187031  2.00000000
:BAN00020:  20   -0.219155   -0.186360  2.00000000
:BAN00021:  21   -0.201913   -0.179395  2.00000000
:BAN00022:  22   -0.181988   -0.144371  2.00000000
:BAN00023:  23   -0.167532   -0.139557  2.00000000
:BAN00024:  24   -0.162948   -0.132184  2.00000000
:BAN00025:  25    0.457374    0.663755  0.00000000
:BAN00026:  26    0.581351    0.735750  0.00000000
:BAN00027:  27    0.695830    0.752687  0.00000000
:BAN00028:  28    0.737669    0.802671  0.00000000
:BAN00029:  29    0.746737    0.808268  0.00000000
        Energy to separate low and high energystates:   -0.78132


:NOE  : NUMBER OF ELECTRONS          =   48.000

:FER  : F E R M I - ENERGY(TETRAH.M.)=  -0.1321837415
:GMA  : POTENTIAL AND CHARGE CUT-OFF  12.00 Ry**.5

:POS001: ATOM   -1 X,Y,Z = 0.46913 0.46913 0.50000  MULT= 3  ZZ= 14.000  Si        

       LMMAX 25
       LM=   0 0  1 0  2 0  2 2 -2 2  3 0  3 2 -3 2  4 0  4 2 -4 2  4 4 -4 4  5 0  5 2 -5 2  5 4
        -5 4  6 0  6 2 -6 2  6 4 -6 4  6 6 -6 6

:CHA001: TOTAL VALENCE CHARGE INSIDE SPHERE   1 =   0.6486    (RMT=  1.5100 )
:PCS001: PARTIAL CHARGES SPHERE =  1 S,P,D,F,PX,PY,PZ,D-Z2,D-X2Y2,D-XY,D-XZ,D-YZ 
:QTL001: 0.2199 0.2864 0.1242 0.0145 0.0963 0.0969 0.0932 0.0136 0.0191 0.0277 0.0324 0.0315
        Q-s-low E-s-low   Q-p-low E-p-low   Q-d-low E-d-low   Q-f-low E-f-low
:EPL001:  0.0588 -1.4763    0.0560 -1.4111    0.0197 -1.4111    0.0031 -1.4490
        Q-s-hi  E-s-hi    Q-p-hi  E-p-hi    Q-d-hi  E-d-hi    Q-f-hi  E-f-hi 
:EPH001:  0.1611 -0.6064    0.2304 -0.4607    0.1045 -0.3352    0.0114 -0.3200

                      QXX         QXY         QYY         QZZ       UP TO R
:VZZ001:            -0.22534     0.19759    -0.34964     0.57499       1.510

:POS002: ATOM   -2 X,Y,Z = 0.14451 0.41337 0.61807  MULT= 6  ZZ=  8.000  O         

       LMMAX 49

:CHA002: TOTAL VALENCE CHARGE INSIDE SPHERE   2 =   5.5265    (RMT=  1.5100 )
:PCS002: PARTIAL CHARGES SPHERE =  2 S,P,D,F,PX,PY,PZ,D-Z2,D-X2Y2,D-XY,D-XZ,D-YZ 
:QTL002: 1.5413 3.9739 0.0086 0.0024 1.3143 1.3362 1.3235 0.0013 0.0019 0.0015 0.0018 0.0019
        Q-s-low E-s-low   Q-p-low E-p-low   Q-d-low E-d-low   Q-f-low E-f-low
:EPL002:  1.4880 -1.4286    0.0161 -1.4373    0.0026 -1.4368    0.0002 -1.4315
        Q-s-hi  E-s-hi    Q-p-hi  E-p-hi    Q-d-hi  E-d-hi    Q-f-hi  E-f-hi 
:EPH002:  0.0533 -0.3842    3.9578 -0.3151    0.0059 -0.4019    0.0022 -0.3825

                      QXX         QXY         QYY         QZZ       UP TO R
:VZZ002:             1.34388    -2.99370    -1.47574     0.13186       1.510

:CHA  : TOTAL VALENCE CHARGE INSIDE UNIT CELL =      48.000000

:SUM  : SUM OF EIGENVALUES =         -28.994639294


        1.ATOM      Si                    4 CORE STATES
       CORE-FORCE in mRy/a.u. = |F|      Fx             Fy             Fz
:FCO001:   1.ATOM      1.766195996379      0.000000000000      0.000000000000     -1.766195996379

:1S 001: 1S                -130.517014174 Ry
:2S 001: 2S                  -9.533992862 Ry
:2PP001: 2P*                 -6.335705339 Ry
:2P 001: 2P                  -6.288331436 Ry

        2.ATOM      O                     1 CORE STATES
       CORE-FORCE in mRy/a.u. = |F|      Fx             Fy             Fz
:FCO002:   2.ATOM    276.455023643740    213.514770732789    109.448003602128    137.331559680556

:1S 002: 1S                 -37.315112214 Ry
:LCORE   core superposition due to .lcore file
         First and last fourier coefficient of PW representation:
       0    0    0 1.574717951212E-03 0.000000000000E+00
     -12   -5    3 5.778688537946E-07 5.531881482286E-07
:CINT001 Core Integral Atom   1    9.95405953
:CINT002 Core Integral Atom   2    2.00195696

       DENSITY AT NUCLEUS
        JATOM        VALENCE       SEMI-CORE          CORE           TOTAL
:RTO001:   1        4.835536     1885.999767        0.000000     1890.835303
:RTO002:   2       15.669786      303.971913        0.000000      319.641699
 :K-LIST:Reduced k-vector list         3723        1721
     
       CHARGES OF NEW CHARGE DENSITY
:NTO   : INTERSTITIAL CHARGE  =    13.021458
:NPC   : INTERSTITIAL CHARGE  =    25.107560
:NTO001: CHARGE SPHERE   1    =    10.602650
:NTO002: CHARGE SPHERE   2    =     7.528414

:NEC01: NUCLEAR AND ELECTRONIC CHARGE     90.00000    89.99989
     
       CHARGES OF OLD CHARGE DENSITY
:OTO   : INTERSTITIAL CHARGE  =    16.923923
:OPC   : INTERSTITIAL CHARGE  =    24.027103
:OTO001: CHARGE SPHERE   1    =    10.873161
:OTO002: CHARGE SPHERE   2    =     6.742765

:NEC02: NUCLEAR AND ELECTRONIC CHARGE     90.00000    90.00000019
     
       CONVERGENCE TEST
:DTO001: DIFFERENCE IN SPHERE  1 =  0.3323411
:DTO002: DIFFERENCE IN SPHERE  2 =  0.9627455

:DIS  :  CHARGE DISTANCE      (  0.9627455 for atom    2 spin 1)      0.7526107
 
******************************************************
* Multisecant Mixing Release 10.8.4                  *
* Standard Mode with step bound                      *
* Multisecant MSR1 Algorithm                         *
* Regularization       2.000E-04                     *
* Minimum Greed        1.000E-03                     *
* Max Number of Memory Steps    8                    *
******************************************************
 

:FULLRMS/Atom   1.0716431537
:PLANE:  PW /ATOM     4.45104 DISTAN   1.02E+00 %  2.30E+01
:CHARG:  CLM/ATOM    80.89712 DISTAN   1.24E+00 %  1.53E+00

Step History
        Dmix         Dmixt        Red     Pred      Step      Lambda    MagAbs    Beta
  1   3.5000E-01   3.5000E-01  1.00E+00  1.00E+00  1.25E-01  1.00E+00  1.13E-01  1.00E+00
:NOTE :  :INFO: Pratt in use
:TRUST:  Step  1.2E-01 Charge  3.3E-02 (e) CTO  3.4E-01 (e) PW  2.2E-01 (e)
:DIRP : |PRAT|= 4.397E-02 |PRATT|= 2.049E+00 ANGLE=   0.0 DEGREES
:DIRQ : |PRAT|= 5.318E-02 |PRATT|= 2.478E+00 ANGLE=   0.0 DEGREES
:DIRT : |PRAT|= 6.900E-02 |PRATT|= 3.215E+00 ANGLE=   0.0 DEGREES
  
Performing Pseudo Compensation  15  64
  
Final Pseudo Compensation Rescaling     9.97892E-01
  
:MIX  :   PRATT  REGULARIZATION:  2.00E-04 GREED: 0.02146                 
     
       CHARGES OF MIXED CHARGE DENSITY
:CTO   : INTERSTITIAL CHARGE  =    16.840173
:CPC   : INTERSTITIAL CHARGE  =    24.397715
:CTO001: CHARGE SPHERE   1    =    10.867356
:CTO002: CHARGE SPHERE   2    =     6.759627

:NEC03: NUCLEAR AND ELECTRONIC CHARGE     90.00000    90.00000000

PW CHANGE     H    K    L             Current                    Change               Residue
:PTO001:      0    0    0  5.43280363E-02 0.00000000E+00  3.779E-04  0.000E+00 -3.717E-03  0.000E+00
:PTO002:      0    0   -1 -8.77980689E-10-6.18075229E-20 -2.727E-11 -6.181E-20  8.161E-10  0.000E+00
:PTO003:     -1    0    0 -3.85039910E-02-1.43745767E-18  1.255E-03 -1.437E-18  3.877E-03  0.000E+00
:PTO004:     -1    0   -1  4.32631156E-02-7.49339123E-02 -1.003E-03  1.737E-03 -1.318E-03  2.284E-03
:PTO005:     -1    0    1  2.59761621E-02 4.49920316E-02 -1.019E-03 -1.764E-03 -1.574E-03 -2.726E-03
:PTO006:      0    0   -2 -3.53084373E-10-1.37229090E-19 -2.740E-11 -1.372E-19  2.718E-10  0.000E+00
:PTO007:     -2    1    0 -1.52665974E-02-2.22511312E-02  2.129E-04 -2.744E-03 -3.902E-04 -6.075E-03
:PTO008:     -1   -1    0 -1.52665974E-02 2.22511312E-02  2.129E-04  2.744E-03 -3.902E-04  6.075E-03
:PTO009:     -1    0   -2  3.57153320E-02 6.18607722E-02  5.016E-03  8.688E-03  1.061E-02  1.838E-02
:PTO010:     -1    0    2  6.23490844E-04-1.07991803E-03  2.980E-03 -5.162E-03  4.670E-03 -8.089E-03
:PTO011:     -2    1   -1 -4.37428969E-02-2.37639990E-02 -5.642E-03 -6.317E-03 -1.275E-02 -1.121E-02
:PTO012:     -1   -1   -1  4.24516748E-02 2.60004611E-02  8.292E-03  1.727E-03  1.609E-02  5.439E-03

:ENE  : ********** TOTAL ENERGY IN Ry =        -2644.92952671

:FOR001:   1.ATOM          2.371          0.000          0.000         -2.371 partial forces
:FOR002:   2.ATOM        805.018       -621.773       -318.681       -399.867 partial forces
       TOTAL FORCE WITH RESPECT TO THE GLOBAL COORDINATE SYSTEM:
:FGL001:   1.ATOM                -2.371247074    -2.371247074     0.000000000 partial forces
:FGL002:   2.ATOM              -717.962098357  -677.662111742  -399.867020676 partial forces
 Euler-Maclaurian Coulomb
 Consistent 3/8+Simpson combinations at start/end
 New Mode for Coulomb Integral
 Extension of core to zero
 LDM version in phi
 Fifth-order quadrature in outwin
 Lebedev-Laikov Grid in lapw0


            ---------
:ITE002:  2. ITERATION
            ---------

:NATO :    2 INDEPENDENT AND    9 TOTAL ATOMS IN UNITCELL
       SUBSTANCE: SiO2 for tests                                              

       LATTICE                      = H   
:LAT  : LATTICE CONSTANTS=  9.26193  9.26193 10.21737
:VOL  : UNIT CELL VOLUME =     759.05354
:POT  : POTENTIAL OPTION EX_PBE EC_PBE VX_PBE VC_PBE
       MODE OF CALCULATION IS       = RELA
       NON-SPINPOLARIZED CALCULATION
:IFFT  : FFT-parameters:   72   72   80 Factor: 2.00


   CONVERGENCE PARAMETER FOR PSEUDOCHARGE: NCON=  9
   MAXIMAL VALUE OF RMT(JATOM)*ABSK(NKK) : RK  =18.11505


:VKCOUL :  VK-COUL convergence: 0.260E-05
 Lebedev grid of          350
 Lebedev grid of          350
 :rho_min:  2.000000000000000E-008  1.000000000000000E-009
:VCOUL001 ATOMNUMBER=  1 Si      VCOUL-ZERO = -0.10893E+01
:EFG001:                        EFG         =     0.00998   *10**21  V / m**2
                               V20  TOT/SRF=    -0.00323    -0.01603
                               V22  TOT/SRF=     0.00108     0.00397
                               V22M TOT/SRF=    -0.00804    -0.02154
                               V21  TOT/SRF=     0.00000     0.00000
                               V21M TOT/SRF=     0.00000     0.00000

              0.00295   -0.00804    0.00000        0.00998    0.00000    0.00000
             -0.00804    0.00078    0.00000        0.00000   -0.00625    0.00000
              0.00000    0.00000   -0.00373        0.00000    0.00000   -0.00373

         MAIN DIRECTIONS OF THE EFG   1.0000  0.8746  0.0000
                                     -0.8746  1.0000  0.0000
                                      0.0000  0.0000  1.0000
:ANG001:  ANGLE WITH OLD X-AXIS =        41.2

:ETA001:                         ASYMM. ETA =     0.25227


:VCOUL002 ATOMNUMBER=  2 O       VCOUL-ZERO = -0.16326E+00
:EFG002:                        EFG         =     2.50883   *10**21  V / m**2
                               V20  TOT/SRF=     0.02049     0.02208
                               V22  TOT/SRF=     0.50034     0.56778
                               V22M TOT/SRF=    -1.10336    -1.25610
                               V21  TOT/SRF=    -1.36188    -1.54753
                               V21M TOT/SRF=     1.20303     1.36399

              0.48851   -1.10336   -1.36188        2.50883    0.00000    0.00000
             -1.10336   -0.51217    1.20303        0.00000   -1.03197    0.00000
             -1.36188    1.20303    0.02366        0.00000    0.00000   -1.47686

         MAIN DIRECTIONS OF THE EFG   1.0000  1.0000  0.0157
                                     -0.7228  0.5271  1.0000
                                     -0.8979  0.6894 -0.7874
:ANG002:  ANGLE WITH OLD X-AXIS =        45.0

:ETA002:                         ASYMM. ETA =     0.17733


     HELLMANN-FEYNMAN-FORCE IN mRy/a.u. = |F|  Fx       Fy             Fz
:FHF001:   1.ATOM      1.647103897003      0.000000000000      0.000000000000     -1.647103897003

     HELLMANN-FEYNMAN-FORCE IN mRy/a.u. = |F|  Fx       Fy             Fz
:FHF002:   2.ATOM   1071.506647640268   -827.240469011251   -425.383626555828   -531.835005077273

:FIT001: LUSE= 13 SIGMA OF V-XC FIT FOR ATOM  1  0.5011267E-02
:FIT001: LUSE= 13 SIGMA OF V-XC FIT FOR ATOM  1  0.5011267E-02
:FIT002: LUSE= 13 SIGMA OF V-XC FIT FOR ATOM  2  0.4810744E-03
:FIT002: LUSE= 13 SIGMA OF V-XC FIT FOR ATOM  2  0.4810744E-03
:DEN  : DENSITY INTEGRAL  =         -1215.07641998   (Ry)
       ELS_POTENTIAL_AT Z=0 and Z=0.5:   0.03752  -0.06696
       ELS_POTENTIAL_AT Y=0 and Y=0.5:   0.00000   0.00000
:VZERO:v0,v0c,v0x  -0.70230   0.03752  -0.73981 v5,v5c,v5x  -0.73826  -0.06696  -0.67130
:VZERY:v0,v0c,v0x  -0.70567   0.00000  -0.70567 v5,v5c,v5x  -0.70567   0.00000  -0.70567
:VZERX:v0,v0c,v0x  -0.07438   0.32130  -0.39568 v5,v5c,v5x  -2.46196  -1.57136  -0.89061
:LMAX-WF:   10   Non-Spherical LMAX:   4

          ATOMIC SPHERE DEPENDENT PARAMETERS FOR ATOM  Si        
:e__0001: OVERALL ENERGY PARAMETER IS   -0.1215
          OVERALL BASIS SET ON ATOM IS LAPW
:E0_0001: E( 0)=   -0.1215
             APW+lo
:E1_0001: E( 1)=   -0.1215
             APW+lo

          ATOMIC SPHERE DEPENDENT PARAMETERS FOR ATOM  O         
:e__0002: OVERALL ENERGY PARAMETER IS   -0.1215
          OVERALL BASIS SET ON ATOM IS LAPW
:E0_0002: E( 0)=    0.2785
             APW+lo
:E0_0002: E( 0)=   -1.1703   E(BOTTOM)=   -2.821   E(TOP)=    0.480  1  2   264
             LOCAL ORBITAL
:E1_0002: E( 1)=   -0.1215
             APW+lo

       K=  0.000000  0.000000  0.000000            1
:RKM  : MATRIX SIZE  1317LOs:  42  RKM= 6.98  WEIGHT= 1.00  PGR:    
       EIGENVALUES ARE:
:EIG00001:      -1.5144848   -1.4208536   -1.4208536   -1.3823988   -1.3811780
:EIG00006:      -1.3811780   -0.6558646   -0.6558646   -0.4769728   -0.4725220
:EIG00011:      -0.4604447   -0.4604447   -0.2876518   -0.2876518   -0.2757275
:EIG00016:      -0.2589393   -0.2106681   -0.2106681   -0.2084836   -0.1757858
:EIG00021:      -0.1757858   -0.1577041   -0.1336472   -0.1336472    0.4619392
:EIG00026:       0.7344179    0.7344179    0.7505005    0.7505005    0.8575669
:EIG00031:       0.8638723    0.9306406    0.9443345    0.9443345    0.9665120
:EIG00036:       0.9665121    1.0439879    1.1346626    1.1457410    1.1457410
:EIG00041:       1.1603141    1.1603141    1.2753864    1.2753864    1.3679272
:EIG00046:       1.4149884    1.4149884    1.5303314    1.5303314
 
       ********************************************************

:KPT   :      NUMBER OF K-POINTS:   284
       Insulator, EF-inconsistency corrected
:GAP (global)   :  0.580599 Ry =     7.899 eV (accurate value if proper k-mesh)
         Bandranges (emin - emax) and occupancy:
:BAN00014:  14   -0.300713   -0.271736  2.00000000
:BAN00015:  15   -0.282304   -0.259499  2.00000000
:BAN00016:  16   -0.262165   -0.233874  2.00000000
:BAN00017:  17   -0.245089   -0.210668  2.00000000
:BAN00018:  18   -0.233408   -0.205861  2.00000000
:BAN00019:  19   -0.226260   -0.174389  2.00000000
:BAN00020:  20   -0.206972   -0.173618  2.00000000
:BAN00021:  21   -0.189488   -0.166736  2.00000000
:BAN00022:  22   -0.169213   -0.131050  2.00000000
:BAN00023:  23   -0.154616   -0.126225  2.00000000
:BAN00024:  24   -0.150044   -0.118660  2.00000000
:BAN00025:  25    0.461939    0.669092  0.00000000
:BAN00026:  26    0.586982    0.740857  0.00000000
:BAN00027:  27    0.701278    0.756889  0.00000000
:BAN00028:  28    0.740508    0.806935  0.00000000
:BAN00029:  29    0.750500    0.812375  0.00000000
        Energy to separate low and high energystates:   -0.77292


:NOE  : NUMBER OF ELECTRONS          =   48.000

:FER  : F E R M I - ENERGY(TETRAH.M.)=  -0.1186596621
:GMA  : POTENTIAL AND CHARGE CUT-OFF  12.00 Ry**.5

:POS001: ATOM   -1 X,Y,Z = 0.46913 0.46913 0.50000  MULT= 3  ZZ= 14.000  Si        

       LMMAX 25
       LM=   0 0  1 0  2 0  2 2 -2 2  3 0  3 2 -3 2  4 0  4 2 -4 2  4 4 -4 4  5 0  5 2 -5 2  5 4
        -5 4  6 0  6 2 -6 2  6 4 -6 4  6 6 -6 6

:CHA001: TOTAL VALENCE CHARGE INSIDE SPHERE   1 =   0.6565    (RMT=  1.5100 )
:PCS001: PARTIAL CHARGES SPHERE =  1 S,P,D,F,PX,PY,PZ,D-Z2,D-X2Y2,D-XY,D-XZ,D-YZ 
:QTL001: 0.2226 0.2904 0.1255 0.0146 0.0977 0.0983 0.0944 0.0138 0.0193 0.0280 0.0326 0.0317
        Q-s-low E-s-low   Q-p-low E-p-low   Q-d-low E-d-low   Q-f-low E-f-low
:EPL001:  0.0597 -1.4644    0.0568 -1.3984    0.0198 -1.3984    0.0031 -1.4367
        Q-s-hi  E-s-hi    Q-p-hi  E-p-hi    Q-d-hi  E-d-hi    Q-f-hi  E-f-hi 
:EPH001:  0.1628 -0.5965    0.2336 -0.4495    0.1057 -0.3223    0.0115 -0.3065

                      QXX         QXY         QYY         QZZ       UP TO R
:VZZ001:            -0.22980     0.20194    -0.35680     0.58660       1.510

:POS002: ATOM   -2 X,Y,Z = 0.14451 0.41337 0.61807  MULT= 6  ZZ=  8.000  O         

       LMMAX 49

:CHA002: TOTAL VALENCE CHARGE INSIDE SPHERE   2 =   5.5023    (RMT=  1.5100 )
:PCS002: PARTIAL CHARGES SPHERE =  2 S,P,D,F,PX,PY,PZ,D-Z2,D-X2Y2,D-XY,D-XZ,D-YZ 
:QTL002: 1.5385 3.9524 0.0087 0.0024 1.3072 1.3289 1.3163 0.0014 0.0020 0.0015 0.0019 0.0020
        Q-s-low E-s-low   Q-p-low E-p-low   Q-d-low E-d-low   Q-f-low E-f-low
:EPL002:  1.4841 -1.4161    0.0162 -1.4250    0.0026 -1.4245    0.0002 -1.4191
        Q-s-hi  E-s-hi    Q-p-hi  E-p-hi    Q-d-hi  E-d-hi    Q-f-hi  E-f-hi 
:EPH002:  0.0544 -0.3739    3.9362 -0.3032    0.0060 -0.3899    0.0022 -0.3709

                      QXX         QXY         QYY         QZZ       UP TO R
:VZZ002:             1.28891    -2.86319    -1.41750     0.12859       1.510

:CHA  : TOTAL VALENCE CHARGE INSIDE UNIT CELL =      48.000000

:SUM  : SUM OF EIGENVALUES =         -28.428653984


        1.ATOM      Si                    4 CORE STATES
       CORE-FORCE in mRy/a.u. = |F|      Fx             Fy             Fz
:FCO001:   1.ATOM      0.996576994239      0.000000000000      0.000000000000     -0.996576994239

:1S 001: 1S                -130.523338384 Ry
:2S 001: 2S                  -9.537981827 Ry
:2PP001: 2P*                 -6.339831514 Ry
:2P 001: 2P                  -6.292446903 Ry

        2.ATOM      O                     1 CORE STATES
       CORE-FORCE in mRy/a.u. = |F|      Fx             Fy             Fz
:FCO002:   2.ATOM    279.095698328629    215.421090268613    110.824579658250    138.585984993432

:1S 002: 1S                 -37.286510424 Ry
:LCORE   core superposition due to .lcore file
         First and last fourier coefficient of PW representation:
       0    0    0 1.572502303420E-03 0.000000000000E+00
     -12   -5    3 5.774833250574E-07 5.528188105394E-07
:CINT001 Core Integral Atom   1    9.95414820
:CINT002 Core Integral Atom   2    2.00195246

       DENSITY AT NUCLEUS
        JATOM        VALENCE       SEMI-CORE          CORE           TOTAL
:RTO001:   1        4.943942     1886.025059        0.000000     1890.969001
:RTO002:   2       15.606633      303.960408        0.000000      319.567041
 :K-LIST:Reduced k-vector list         3723        1721
     
       CHARGES OF NEW CHARGE DENSITY
:NTO   : INTERSTITIAL CHARGE  =    13.142510
:NPC   : INTERSTITIAL CHARGE  =    25.103343
:NTO001: CHARGE SPHERE   1    =    10.610645
:NTO002: CHARGE SPHERE   2    =     7.504242

:NEC01: NUCLEAR AND ELECTRONIC CHARGE     90.00000    89.99989
     
       CHARGES OF OLD CHARGE DENSITY
:OTO   : INTERSTITIAL CHARGE  =    16.840173
:OPC   : INTERSTITIAL CHARGE  =    24.397715
:OTO001: CHARGE SPHERE   1    =    10.867356
:OTO002: CHARGE SPHERE   2    =     6.759627

:NEC02: NUCLEAR AND ELECTRONIC CHARGE     90.00000    90.00000001
     
       CONVERGENCE TEST
:DTO001: DIFFERENCE IN SPHERE  1 =  0.3125495
:DTO002: DIFFERENCE IN SPHERE  2 =  0.9230247

:DIS  :  CHARGE DISTANCE      (  0.9230247 for atom    2 spin 1)      0.7195330
 
******************************************************
* Multisecant Mixing Release 10.8.4                  *
* Standard Mode with step bound                      *
* Multisecant MSR1 Algorithm                         *
* Regularization       2.000E-04                     *
* Minimum Greed        1.000E-03                     *
* Max Number of Memory Steps    8                    *
******************************************************
 

:FULLRMS/Atom   0.8836489090
:PLANE:  PW /ATOM     4.69613 DISTAN   5.90E-01 %  1.26E+01
:CHARG:  CLM/ATOM    80.89618 DISTAN   1.19E+00 %  1.47E+00

Step History
        Dmix         Dmixt        Red     Pred      Step      Lambda    MagAbs    Beta
  1   3.5000E-01   3.5000E-01  1.00E+00  1.00E+00  1.25E-01  1.00E+00  1.13E-01  1.00E+00
  2   2.1461E-02   2.1461E-02  1.00E+00  1.00E+00  1.25E-01  1.00E+00  1.13E-01  1.00E+00
:NOTE :  Number of Memory Steps    1 Skipping    0

:PREDicted Charge, CTotal, PW Trust   1.58E-01   1.11E+00   5.64E-01
:PREDicted DMix, Beta, BLim           2.21E-01   1.00E+00   2.21E-01

Eigenvalues, unscaled except for SY+YY with Slambda=   1.00000 Ylambda=   1.00000
   #     SY Real       SY Imag         SS            YY        SY+YY Real     SY+YY Imag
   1   4.95904E-01   0.00000E+00   4.89551E-01   5.04096E-01   1.00000E+00   0.00000E+00
 
:TRUST:  Step  1.5E-01 Charge  9.3E-02 (e) CTO  6.8E-01 (e) PW  4.5E-01 (e)
:DTRUS:  Lambda   8.795E-01 Increment   8.660E-15 Iterations    46 DMIX   1.177E-01
:DIRM :  MEMORY  1/8  RED  0.82 PRED  1.00 NEXT  0.98
:NOTE :  Limited by Atoms F by Step T

:DIRP : |MSR1|= 2.860E-01 |PRATT|= 1.180E+00 ANGLE=  45.8 DEGREES
:DIRQ : |MSR1|= 2.857E-01 |PRATT|= 2.374E+00 ANGLE=   0.5 DEGREES
:DIRT : |MSR1|= 4.043E-01 |PRATT|= 2.651E+00 ANGLE=  31.5 DEGREES
:MIX  :   MSD1   REGULARIZATION:  2.00E-04 GREED: 0.22127  LMStep 0.53  0.1525 Step           
     
       CHARGES OF MIXED CHARGE DENSITY
:CTO   : INTERSTITIAL CHARGE  =    16.397005
:CPC   : INTERSTITIAL CHARGE  =    24.539632
:CTO001: CHARGE SPHERE   1    =    10.836571
:CTO002: CHARGE SPHERE   2    =     6.848881

:NEC03: NUCLEAR AND ELECTRONIC CHARGE     90.00000    90.00000000

PW CHANGE     H    K    L             Current                    Change               Residue
:PTO001:      0    0    0  5.39311592E-02 0.00000000E+00 -3.969E-04  0.000E+00 -3.941E-03  0.000E+00
:PTO002:      0    0   -1 -7.74501378E-10 0.00000000E+00  1.035E-10  0.000E+00  8.957E-10  0.000E+00
:PTO003:     -1    0    0 -3.80154869E-02 0.00000000E+00  4.885E-04  0.000E+00  2.499E-03  0.000E+00
:PTO004:     -1    0   -1  4.30767940E-02-7.46111940E-02 -1.863E-04  3.227E-04 -2.508E-04  4.344E-04
:PTO005:     -1    0    1  2.57571303E-02 4.46126573E-02 -2.190E-04 -3.794E-04 -5.029E-04 -8.710E-04
:PTO006:      0    0   -2 -3.09207450E-10 0.00000000E+00  4.388E-11  0.000E+00  3.791E-10  0.000E+00
:PTO007:     -2    1    0 -1.53009935E-02-2.30710035E-02 -3.440E-05 -8.199E-04 -5.865E-04 -3.275E-03
:PTO008:     -1   -1    0 -1.53009935E-02 2.30710035E-02 -3.440E-05  8.199E-04 -5.865E-04  3.275E-03
:PTO009:     -1    0   -2  3.71558157E-02 6.43557637E-02  1.440E-03  2.495E-03  5.492E-03  9.512E-03
:PTO010:     -1    0    2  1.29262231E-03-2.23888763E-03  6.691E-04 -1.159E-03  1.663E-03 -2.881E-03
:PTO011:     -2    1   -1 -4.54588032E-02-2.53293129E-02 -1.716E-03 -1.565E-03 -6.991E-03 -4.791E-03
:PTO012:     -1   -1   -1  4.46652295E-02 2.67038229E-02  2.214E-03  7.034E-04  7.645E-03  3.659E-03

:ENE  : ********** TOTAL ENERGY IN Ry =        -2644.85947224

:FOR001:   1.ATOM          2.644          0.000          0.000         -2.644 partial forces
:FOR002:   2.ATOM        792.411       -611.819       -314.559       -393.249 partial forces
       TOTAL FORCE WITH RESPECT TO THE GLOBAL COORDINATE SYSTEM:
:FGL001:   1.ATOM                -2.643680891    -2.643680891     0.000000000 partial forces
:FGL002:   2.ATOM              -706.468166025  -667.793129910  -393.249020084 partial forces
 Euler-Maclaurian Coulomb
 Consistent 3/8+Simpson combinations at start/end
 New Mode for Coulomb Integral
 Extension of core to zero
 LDM version in phi
 Fifth-order quadrature in outwin
 Lebedev-Laikov Grid in lapw0


            ---------
:ITE003:  3. ITERATION
            ---------

:NATO :    2 INDEPENDENT AND    9 TOTAL ATOMS IN UNITCELL
       SUBSTANCE: SiO2 for tests                                              

       LATTICE                      = H   
:LAT  : LATTICE CONSTANTS=  9.26193  9.26193 10.21737
:VOL  : UNIT CELL VOLUME =     759.05354
:POT  : POTENTIAL OPTION EX_PBE EC_PBE VX_PBE VC_PBE
       MODE OF CALCULATION IS       = RELA
       NON-SPINPOLARIZED CALCULATION
:IFFT  : FFT-parameters:   72   72   80 Factor: 2.00


   CONVERGENCE PARAMETER FOR PSEUDOCHARGE: NCON=  9
   MAXIMAL VALUE OF RMT(JATOM)*ABSK(NKK) : RK  =18.11505


:VKCOUL :  VK-COUL convergence: 0.259E-05
 Lebedev grid of          350
 Lebedev grid of          350
 :rho_min:  2.000000000000000E-008  1.000000000000000E-009
:VCOUL001 ATOMNUMBER=  1 Si      VCOUL-ZERO = -0.10978E+01
:EFG001:                        EFG         =     0.06509   *10**21  V / m**2
                               V20  TOT/SRF=     0.05637    -0.01532
                               V22  TOT/SRF=     0.00623     0.00098
                               V22M TOT/SRF=     0.01633    -0.01907
                               V21  TOT/SRF=     0.00000     0.00000
                               V21M TOT/SRF=     0.00000     0.00000

             -0.02632    0.01633    0.00000       -0.01506    0.00000    0.00000
              0.01633   -0.03877    0.00000        0.00000   -0.05002    0.00000
              0.00000    0.00000    0.06509        0.00000    0.00000    0.06509

         MAIN DIRECTIONS OF THE EFG   1.0000 -0.6890  0.0000
                                      0.6890  1.0000  0.0000
                                      0.0000  0.0000  1.0000
:ANG001:  ANGLE WITH OLD X-AXIS =        34.6

:ETA001:                         ASYMM. ETA =     0.53708


:VCOUL002 ATOMNUMBER=  2 O       VCOUL-ZERO = -0.13218E+00
:EFG002:                        EFG         =     3.39441   *10**21  V / m**2
                               V20  TOT/SRF=     0.03510     0.02287
                               V22  TOT/SRF=     0.67993     0.57049
                               V22M TOT/SRF=    -1.48215    -1.25893
                               V21  TOT/SRF=    -1.84042    -1.55041
                               V21M TOT/SRF=     1.64115     1.36565

              0.65966   -1.48215   -1.84042        3.39441    0.00000    0.00000
             -1.48215   -0.70019    1.64115        0.00000   -1.38209    0.00000
             -1.84042    1.64115    0.04053        0.00000    0.00000   -2.01232

         MAIN DIRECTIONS OF THE EFG   1.0000  1.0000  0.0106
                                     -0.7239  0.5291  1.0000
                                     -0.9030  0.6833 -0.7899
:ANG002:  ANGLE WITH OLD X-AXIS =        45.0

:ETA002:                         ASYMM. ETA =     0.18567


     HELLMANN-FEYNMAN-FORCE IN mRy/a.u. = |F|  Fx       Fy             Fz
:FHF001:   1.ATOM      6.761609967965      0.000000000000      0.000000000000     -6.761609967965

     HELLMANN-FEYNMAN-FORCE IN mRy/a.u. = |F|  Fx       Fy             Fz
:FHF002:   2.ATOM   1017.494824981453   -783.731577813020   -410.053216797640   -502.908433212907

:FIT001: LUSE= 13 SIGMA OF V-XC FIT FOR ATOM  1  0.5552021E-02
:FIT001: LUSE= 13 SIGMA OF V-XC FIT FOR ATOM  1  0.5552021E-02
:FIT002: LUSE= 13 SIGMA OF V-XC FIT FOR ATOM  2  0.3785237E-03
:FIT002: LUSE= 13 SIGMA OF V-XC FIT FOR ATOM  2  0.3785237E-03
:DEN  : DENSITY INTEGRAL  =         -1218.29341974   (Ry)
       ELS_POTENTIAL_AT Z=0 and Z=0.5:   0.04150  -0.07082
       ELS_POTENTIAL_AT Y=0 and Y=0.5:   0.00000   0.00000
:VZERO:v0,v0c,v0x  -0.69077   0.04150  -0.73227 v5,v5c,v5x  -0.72806  -0.07082  -0.65724
:VZERY:v0,v0c,v0x  -0.69661   0.00000  -0.69661 v5,v5c,v5x  -0.69661   0.00000  -0.69661
:VZERX:v0,v0c,v0x  -0.06442   0.31000  -0.37442 v5,v5c,v5x  -2.44150  -1.57507  -0.86643
:LMAX-WF:   10   Non-Spherical LMAX:   4

          ATOMIC SPHERE DEPENDENT PARAMETERS FOR ATOM  Si        
:e__0001: OVERALL ENERGY PARAMETER IS   -0.2529
          OVERALL BASIS SET ON ATOM IS LAPW
:E0_0001: E( 0)=   -0.2529
             APW+lo
:E1_0001: E( 1)=   -0.2529
             APW+lo

          ATOMIC SPHERE DEPENDENT PARAMETERS FOR ATOM  O         
:e__0002: OVERALL ENERGY PARAMETER IS   -0.2529
          OVERALL BASIS SET ON ATOM IS LAPW
:E0_0002: E( 0)=    0.1471
             APW+lo
:E0_0002: E( 0)=   -1.0915   E(BOTTOM)=   -2.756   E(TOP)=    0.573  1  2   266
             LOCAL ORBITAL
:E1_0002: E( 1)=   -0.2529
             APW+lo

       K=  0.000000  0.000000  0.000000            1
:RKM  : MATRIX SIZE  1317LOs:  42  RKM= 6.98  WEIGHT= 1.00  PGR:    
       EIGENVALUES ARE:
:EIG00001:      -1.4622426   -1.3627545   -1.3627545   -1.3214522   -1.3198543
:EIG00006:      -1.3198543   -0.6145569   -0.6145569   -0.4254742   -0.4228699
:EIG00011:      -0.4098207   -0.4098207   -0.2367472   -0.2367471   -0.2226295
:EIG00016:      -0.2055430   -0.1511867   -0.1511867   -0.1493037   -0.1152059
:EIG00021:      -0.1152059   -0.0958000   -0.0703870   -0.0703870    0.4799694
:EIG00026:       0.7430037    0.7430037    0.7646603    0.7646603    0.8712512
:EIG00031:       0.8815499    0.9462065    0.9661904    0.9661904    0.9949425
:EIG00036:       0.9949425    1.0659879    1.1499515    1.1572368    1.1572368
:EIG00041:       1.1688389    1.1688390    1.2863003    1.2863003    1.3775339
:EIG00046:       1.4266878    1.4266878
 
       ********************************************************

:KPT   :      NUMBER OF K-POINTS:   284
       Insulator, EF-inconsistency corrected
:GAP (global)   :  0.533146 Ry =     7.254 eV (accurate value if proper k-mesh)
         Bandranges (emin - emax) and occupancy:
:BAN00014:  14   -0.251613   -0.219071  2.00000000
:BAN00015:  15   -0.230494   -0.205419  2.00000000
:BAN00016:  16   -0.208343   -0.177150  2.00000000
:BAN00017:  17   -0.189492   -0.151187  2.00000000
:BAN00018:  18   -0.176552   -0.147322  2.00000000
:BAN00019:  19   -0.169613   -0.113673  2.00000000
:BAN00020:  20   -0.148869   -0.112467  2.00000000
:BAN00021:  21   -0.129969   -0.106063  2.00000000
:BAN00022:  22   -0.107748   -0.066690  2.00000000
:BAN00023:  23   -0.092431   -0.061642  2.00000000
:BAN00024:  24   -0.087956   -0.053177  2.00000000
:BAN00025:  25    0.479969    0.690998  0.00000000
:BAN00026:  26    0.610773    0.760627  0.00000000
:BAN00027:  27    0.723541    0.769503  0.00000000
:BAN00028:  28    0.747714    0.819222  0.00000000
:BAN00029:  29    0.764660    0.826489  0.00000000
        Energy to separate low and high energystates:   -0.73575


:NOE  : NUMBER OF ELECTRONS          =   48.000

:FER  : F E R M I - ENERGY(TETRAH.M.)=  -0.0531765557
:GMA  : POTENTIAL AND CHARGE CUT-OFF  12.00 Ry**.5

:POS001: ATOM   -1 X,Y,Z = 0.46913 0.46913 0.50000  MULT= 3  ZZ= 14.000  Si        

       LMMAX 25
       LM=   0 0  1 0  2 0  2 2 -2 2  3 0  3 2 -3 2  4 0  4 2 -4 2  4 4 -4 4  5 0  5 2 -5 2  5 4
        -5 4  6 0  6 2 -6 2  6 4 -6 4  6 6 -6 6

:CHA001: TOTAL VALENCE CHARGE INSIDE SPHERE   1 =   0.6960    (RMT=  1.5100 )
:PCS001: PARTIAL CHARGES SPHERE =  1 S,P,D,F,PX,PY,PZ,D-Z2,D-X2Y2,D-XY,D-XZ,D-YZ 
:QTL001: 0.2358 0.3097 0.1325 0.0146 0.1041 0.1050 0.1006 0.0150 0.0207 0.0295 0.0342 0.0332
        Q-s-low E-s-low   Q-p-low E-p-low   Q-d-low E-d-low   Q-f-low E-f-low
:EPL001:  0.0646 -1.4089    0.0600 -1.3383    0.0202 -1.3383    0.0031 -1.3793
        Q-s-hi  E-s-hi    Q-p-hi  E-p-hi    Q-d-hi  E-d-hi    Q-f-hi  E-f-hi 
:EPH001:  0.1712 -0.5514    0.2498 -0.3978    0.1123 -0.2613    0.0115 -0.2420

                      QXX         QXY         QYY         QZZ       UP TO R
:VZZ001:            -0.22994     0.19891    -0.42351     0.65345       1.510

:POS002: ATOM   -2 X,Y,Z = 0.14451 0.41337 0.61807  MULT= 6  ZZ=  8.000  O         

       LMMAX 49

:CHA002: TOTAL VALENCE CHARGE INSIDE SPHERE   2 =   5.3793    (RMT=  1.5100 )
:PCS002: PARTIAL CHARGES SPHERE =  2 S,P,D,F,PX,PY,PZ,D-Z2,D-X2Y2,D-XY,D-XZ,D-YZ 
:QTL002: 1.5233 3.8438 0.0094 0.0026 1.2717 1.2920 1.2801 0.0015 0.0021 0.0017 0.0020 0.0021
        Q-s-low E-s-low   Q-p-low E-p-low   Q-d-low E-d-low   Q-f-low E-f-low
:EPL002:  1.4629 -1.3573    0.0171 -1.3672    0.0028 -1.3665    0.0002 -1.3606
        Q-s-hi  E-s-hi    Q-p-hi  E-p-hi    Q-d-hi  E-d-hi    Q-f-hi  E-f-hi 
:EPH002:  0.0605 -0.3259    3.8268 -0.2471    0.0066 -0.3328    0.0023 -0.3161

                      QXX         QXY         QYY         QZZ       UP TO R
:VZZ002:             1.17790    -2.58957    -1.30008     0.12218       1.510

:CHA  : TOTAL VALENCE CHARGE INSIDE UNIT CELL =      48.000000

:SUM  : SUM OF EIGENVALUES =         -25.766450613


        1.ATOM      Si                    4 CORE STATES
       CORE-FORCE in mRy/a.u. = |F|      Fx             Fy             Fz
:FCO001:   1.ATOM      2.782697724884      0.000000000000      0.000000000000      2.782697724884

:1S 001: 1S                -130.561646982 Ry
:2S 001: 2S                  -9.564901108 Ry
:2PP001: 2P*                 -6.367398910 Ry
:2P 001: 2P                  -6.319961039 Ry

        2.ATOM      O                     1 CORE STATES
       CORE-FORCE in mRy/a.u. = |F|      Fx             Fy             Fz
:FCO002:   2.ATOM    293.527097723725    225.868220501046    118.226396699805    145.479287835707

:1S 002: 1S                 -37.139167166 Ry
:LCORE   core superposition due to .lcore file
         First and last fourier coefficient of PW representation:
       0    0    0 1.561128169319E-03 0.000000000000E+00
     -12   -5    3 5.755191376908E-07 5.509385449439E-07
:CINT001 Core Integral Atom   1    9.95460427
:CINT002 Core Integral Atom   2    2.00192934

       DENSITY AT NUCLEUS
        JATOM        VALENCE       SEMI-CORE          CORE           TOTAL
:RTO001:   1        5.255032     1886.151470        0.000000     1891.406502
:RTO002:   2       15.269212      303.897255        0.000000      319.166467
 :K-LIST:Reduced k-vector list         3723        1721
     
       CHARGES OF NEW CHARGE DENSITY
:NTO   : INTERSTITIAL CHARGE  =    13.760289
:NPC   : INTERSTITIAL CHARGE  =    25.001751
:NTO001: CHARGE SPHERE   1    =    10.650651
:NTO002: CHARGE SPHERE   2    =     7.381276

:NEC01: NUCLEAR AND ELECTRONIC CHARGE     90.00000    89.99990
     
       CHARGES OF OLD CHARGE DENSITY
:OTO   : INTERSTITIAL CHARGE  =    16.397005
:OPC   : INTERSTITIAL CHARGE  =    24.539632
:OTO001: CHARGE SPHERE   1    =    10.836571
:OTO002: CHARGE SPHERE   2    =     6.848881

:NEC02: NUCLEAR AND ELECTRONIC CHARGE     90.00000    90.00000000
     
       CONVERGENCE TEST
:DTO001: DIFFERENCE IN SPHERE  1 =  0.2277707
:DTO002: DIFFERENCE IN SPHERE  2 =  0.6215929

:DIS  :  CHARGE DISTANCE      (  0.6215929 for atom    2 spin 1)      0.4903188
 
******************************************************
* Multisecant Mixing Release 10.8.4                  *
* Standard Mode with step bound                      *
* Multisecant MSR1 Algorithm                         *
* Regularization       2.000E-04                     *
* Minimum Greed        1.000E-03                     *
* Max Number of Memory Steps    8                    *
******************************************************
 

:FULLRMS/Atom   0.6243544581
:PLANE:  PW /ATOM     4.75886 DISTAN   4.63E-01 %  9.73E+00
:CHARG:  CLM/ATOM    80.89163 DISTAN   8.14E-01 %  1.01E+00

Step History
        Dmix         Dmixt        Red     Pred      Step      Lambda    MagAbs    Beta
  1   2.2127E-01   3.5000E-01  1.00E+00  1.00E+00  1.25E-01  1.00E+00  1.13E-01  1.00E+00
  2   2.2127E-01   2.1461E-02  8.25E-01  1.00E+00  1.25E-01  1.00E+00  1.13E-01  1.00E+00
  3   2.2127E-01   1.1773E-01  1.00E+00  9.85E-01  1.52E-01  1.00E+00  4.04E-01  1.00E+00
:NOTE :  Number of Memory Steps    2 Skipping    0

:PREDicted Charge, CTotal, PW Trust   2.58E-01   1.82E+00   9.42E-01
:PREDicted DMix, Beta, BLim           4.16E-01   1.00E+00   4.63E-01

Eigenvalues, unscaled except for SY+YY with Slambda=   1.31788 Ylambda=   1.00000
   #     SY Real       SY Imag         SS            YY        SY+YY Real     SY+YY Imag
   1   5.82678E-01   0.00000E+00   4.32354E-01   1.01503E+00   1.76591E+00   0.00000E+00
   2   7.31209E-02   0.00000E+00   3.95386E-02   1.20704E-01   2.34088E-01   0.00000E+00
 
:SING : Singular value  1.767E+00  Weight  1.000E+00  Projection -1.081E+00
:SING : Singular value  2.340E-01  Weight  1.000E+00  Projection  3.264E+00

:RANK :  ACTIVE   2.00/2  = 100.00 % ; YY RANK   2.00/2  = 100.00 %
:TRUST:  Step  3.0E-01 Charge  6.1E-02 (e) CTO  4.6E-01 (e) PW  7.3E-02 (e)
:DTRUS:  Lambda   2.611E+00 Increment   2.265E-14 Iterations    57 DMIX   2.206E-01
:DIRM :  MEMORY  2/8  RED  0.71 PRED  0.98 NEXT  0.54
:NOTE :  Limited by Atoms F by Step T

:DIRP : |MSR1|= 3.242E-01 |PRATT|= 9.258E-01 ANGLE=  11.3 DEGREES
:DIRQ : |MSR1|= 4.609E-01 |PRATT|= 1.628E+00 ANGLE=  12.1 DEGREES
:DIRT : |MSR1|= 5.635E-01 |PRATT|= 1.873E+00 ANGLE=  13.0 DEGREES
:MIX  :   MSR1   REGULARIZATION:  3.53E-04 GREED: 0.31843  LMStep 0.69  0.3008 Step           
     
       CHARGES OF MIXED CHARGE DENSITY
:CTO   : INTERSTITIAL CHARGE  =    15.633471
:CPC   : INTERSTITIAL CHARGE  =    24.671635
:CTO001: CHARGE SPHERE   1    =    10.781594
:CTO002: CHARGE SPHERE   2    =     7.003625

:NEC03: NUCLEAR AND ELECTRONIC CHARGE     90.00000    90.00000000

PW CHANGE     H    K    L             Current                    Change               Residue
:PTO001:      0    0    0  5.30991617E-02 0.00000000E+00 -8.320E-04  0.000E+00 -2.865E-03  0.000E+00
:PTO002:      0    0   -1 -4.89589360E-10 0.00000000E+00  2.849E-10  0.000E+00  7.922E-10  0.000E+00
:PTO003:     -1    0    0 -3.76881026E-02 0.00000000E+00  3.274E-04  0.000E+00  1.430E-03  0.000E+00
:PTO004:     -1    0   -1  4.32189693E-02-7.48574489E-02  1.422E-04 -2.463E-04  1.688E-04 -2.924E-04
:PTO005:     -1    0    1  2.58122597E-02 4.47081442E-02  5.513E-05  9.549E-05 -6.229E-05 -1.079E-04
:PTO006:      0    0   -2 -1.92740715E-10 0.00000000E+00  1.165E-10  0.000E+00  3.349E-10  0.000E+00
:PTO007:     -2    1    0 -1.54106721E-02-2.36561677E-02 -1.097E-04 -5.852E-04 -4.164E-04 -2.037E-03
:PTO008:     -1   -1    0 -1.54106721E-02 2.36561677E-02 -1.097E-04  5.852E-04 -4.164E-04  2.037E-03
:PTO009:     -1    0   -2  3.80779871E-02 6.59530115E-02  9.222E-04  1.597E-03  3.304E-03  5.722E-03
:PTO010:     -1    0    2  1.50320981E-03-2.60363589E-03  2.106E-04 -3.647E-04  8.086E-04 -1.400E-03
:PTO011:     -2    1   -1 -4.67410851E-02-2.59681687E-02 -1.282E-03 -6.389E-04 -4.410E-03 -2.519E-03
:PTO012:     -1   -1   -1  4.58596357E-02 2.74948837E-02  1.194E-03  7.911E-04  4.386E-03  2.560E-03

:ENE  : ********** TOTAL ENERGY IN Ry =        -2644.53309081

:FOR001:   1.ATOM          3.979          0.000          0.000         -3.979 partial forces
:FOR002:   2.ATOM        723.968       -557.863       -291.827       -357.429 partial forces
       TOTAL FORCE WITH RESPECT TO THE GLOBAL COORDINATE SYSTEM:
:FGL001:   1.ATOM                -3.978912243    -3.978912243     0.000000000 partial forces
:FGL002:   2.ATOM              -644.165119030  -613.909379613  -357.429145377 partial forces
 Euler-Maclaurian Coulomb
 Consistent 3/8+Simpson combinations at start/end
 New Mode for Coulomb Integral
 Extension of core to zero
 LDM version in phi
 Fifth-order quadrature in outwin
 Lebedev-Laikov Grid in lapw0


            ---------
:ITE004:  4. ITERATION
            ---------

:NATO :    2 INDEPENDENT AND    9 TOTAL ATOMS IN UNITCELL
       SUBSTANCE: SiO2 for tests                                              

       LATTICE                      = H   
:LAT  : LATTICE CONSTANTS=  9.26193  9.26193 10.21737
:VOL  : UNIT CELL VOLUME =     759.05354
:POT  : POTENTIAL OPTION EX_PBE EC_PBE VX_PBE VC_PBE
       MODE OF CALCULATION IS       = RELA
       NON-SPINPOLARIZED CALCULATION
:IFFT  : FFT-parameters:   72   72   80 Factor: 2.00


   CONVERGENCE PARAMETER FOR PSEUDOCHARGE: NCON=  9
   MAXIMAL VALUE OF RMT(JATOM)*ABSK(NKK) : RK  =18.11505


:VKCOUL :  VK-COUL convergence: 0.254E-05
 Lebedev grid of          350
 Lebedev grid of          350
 :rho_min:  2.000000000000000E-008  1.000000000000000E-009
:VCOUL001 ATOMNUMBER=  1 Si      VCOUL-ZERO = -0.11058E+01
:EFG001:                        EFG         =     0.30122   *10**21  V / m**2
                               V20  TOT/SRF=     0.26086    -0.00336
                               V22  TOT/SRF=     0.04781    -0.00127
                               V22M TOT/SRF=     0.07614    -0.01408
                               V21  TOT/SRF=     0.00000     0.00000
                               V21M TOT/SRF=     0.00000     0.00000

             -0.10280    0.07614    0.00000       -0.06071    0.00000    0.00000
              0.07614   -0.19842    0.00000        0.00000   -0.24051    0.00000
              0.00000    0.00000    0.30122        0.00000    0.00000    0.30122

         MAIN DIRECTIONS OF THE EFG   1.0000 -0.5529  0.0000
                                      0.5529  1.0000  0.0000
                                      0.0000  0.0000  1.0000
:ANG001:  ANGLE WITH OLD X-AXIS =        28.9

:ETA001:                         ASYMM. ETA =     0.59691


:VCOUL002 ATOMNUMBER=  2 O       VCOUL-ZERO = -0.70168E-01
:EFG002:                        EFG         =     5.34064   *10**21  V / m**2
                               V20  TOT/SRF=     0.06952     0.02405
                               V22  TOT/SRF=     1.07670     0.56752
                               V22M TOT/SRF=    -2.30371    -1.25014
                               V21  TOT/SRF=    -2.89291    -1.53828
                               V21M TOT/SRF=     2.61381     1.35351

              1.03656   -2.30371   -2.89291        5.34064    0.00000    0.00000
             -2.30371   -1.11684    2.61381        0.00000   -2.14089    0.00000
             -2.89291    2.61381    0.08028        0.00000    0.00000   -3.19975

         MAIN DIRECTIONS OF THE EFG   1.0000  1.0000 -0.0010
                                     -0.7252  0.5364  1.0000
                                     -0.9103  0.6712 -0.7977
:ANG002:  ANGLE WITH OLD X-AXIS =        45.0

:ETA002:                         ASYMM. ETA =     0.19826


     HELLMANN-FEYNMAN-FORCE IN mRy/a.u. = |F|  Fx       Fy             Fz
:FHF001:   1.ATOM      2.170487852793      0.000000000000      0.000000000000     -2.170487852793

     HELLMANN-FEYNMAN-FORCE IN mRy/a.u. = |F|  Fx       Fy             Fz
:FHF002:   2.ATOM    827.626978315317   -636.639445411719   -337.302191127101   -407.288428072855

:FIT001: LUSE= 13 SIGMA OF V-XC FIT FOR ATOM  1  0.7160956E-02
:FIT001: LUSE= 13 SIGMA OF V-XC FIT FOR ATOM  1  0.7160956E-02
:FIT002: LUSE= 13 SIGMA OF V-XC FIT FOR ATOM  2  0.2026618E-03
:FIT002: LUSE= 13 SIGMA OF V-XC FIT FOR ATOM  2  0.2026618E-03
:DEN  : DENSITY INTEGRAL  =         -1223.57743391   (Ry)
       ELS_POTENTIAL_AT Z=0 and Z=0.5:   0.04857  -0.07897
       ELS_POTENTIAL_AT Y=0 and Y=0.5:   0.00000   0.00000
:VZERO:v0,v0c,v0x  -0.66445   0.04857  -0.71302 v5,v5c,v5x  -0.72082  -0.07897  -0.64185
:VZERY:v0,v0c,v0x  -0.67935   0.00000  -0.67935 v5,v5c,v5x  -0.67935   0.00000  -0.67935
:VZERX:v0,v0c,v0x  -0.07310   0.28261  -0.35570 v5,v5c,v5x  -2.43812  -1.58150  -0.85662
:LMAX-WF:   10   Non-Spherical LMAX:   4

          ATOMIC SPHERE DEPENDENT PARAMETERS FOR ATOM  Si        
:e__0001: OVERALL ENERGY PARAMETER IS   -0.2531
          OVERALL BASIS SET ON ATOM IS LAPW
:E0_0001: E( 0)=   -0.2531
             APW+lo
:E1_0001: E( 1)=   -0.2531
             APW+lo

          ATOMIC SPHERE DEPENDENT PARAMETERS FOR ATOM  O         
:e__0002: OVERALL ENERGY PARAMETER IS   -0.2531
          OVERALL BASIS SET ON ATOM IS LAPW
:E0_0002: E( 0)=    0.1469
             APW+lo
:E0_0002: E( 0)=   -0.9629   E(BOTTOM)=   -2.648   E(TOP)=    0.722  1  2   266
             LOCAL ORBITAL
:E1_0002: E( 1)=   -0.2531
             APW+lo

       K=  0.000000  0.000000  0.000000            1
:RKM  : MATRIX SIZE  1317LOs:  42  RKM= 6.98  WEIGHT= 1.00  PGR:    
       EIGENVALUES ARE:
:EIG00001:      -1.3773440   -1.2682920   -1.2682920   -1.2221075   -1.2199716
:EIG00006:      -1.2199716   -0.5468510   -0.5468510   -0.3433676   -0.3425579
:EIG00011:      -0.3288607   -0.3288607   -0.1574342   -0.1574342   -0.1397915
:EIG00016:      -0.1224969   -0.0566998   -0.0566998   -0.0549386   -0.0201879
:EIG00021:      -0.0201879    0.0016302    0.0291589    0.0291589    0.5143397
:EIG00026:       0.7618965    0.7618965    0.7941651    0.7941651    0.8893347
:EIG00031:       0.9272526    0.9774670    1.0037520    1.0037520    1.0485604
:EIG00036:       1.0485604    1.1077029    1.1779196    1.1809069    1.1809069
:EIG00041:       1.1889529    1.1889529    1.3086468    1.3086468    1.3986847
       ********************************************************

:KPT   :      NUMBER OF K-POINTS:   284
       Insulator, EF-inconsistency corrected
:GAP (global)   :  0.463907 Ry =     6.312 eV (accurate value if proper k-mesh)
         Bandranges (emin - emax) and occupancy:
:BAN00014:  14   -0.174896   -0.136390  2.00000000
:BAN00015:  15   -0.152279   -0.119788  2.00000000
:BAN00016:  16   -0.124028   -0.087794  2.00000000
:BAN00017:  17   -0.102187   -0.056700  2.00000000
:BAN00018:  18   -0.087187   -0.055250  2.00000000
:BAN00019:  19   -0.079580   -0.018100  2.00000000
:BAN00020:  20   -0.057914   -0.016124  2.00000000
:BAN00021:  21   -0.036106   -0.010261  2.00000000
:BAN00022:  22   -0.010761    0.034955  2.00000000
:BAN00023:  23    0.005746    0.040778  2.00000000
:BAN00024:  24    0.009794    0.050433  2.00000000
:BAN00025:  25    0.514340    0.732419  0.00000000
:BAN00026:  26    0.654811    0.794906  0.00000000
:BAN00027:  27    0.748552    0.798747  0.00000000
:BAN00028:  28    0.760187    0.841863  0.00000000
:BAN00029:  29    0.792460    0.853882  0.00000000
        Energy to separate low and high energystates:   -0.67472


:NOE  : NUMBER OF ELECTRONS          =   48.000

:FER  : F E R M I - ENERGY(TETRAH.M.)=   0.0504329694
:GMA  : POTENTIAL AND CHARGE CUT-OFF  12.00 Ry**.5

:POS001: ATOM   -1 X,Y,Z = 0.46913 0.46913 0.50000  MULT= 3  ZZ= 14.000  Si        

       LMMAX 25
       LM=   0 0  1 0  2 0  2 2 -2 2  3 0  3 2 -3 2  4 0  4 2 -4 2  4 4 -4 4  5 0  5 2 -5 2  5 4
        -5 4  6 0  6 2 -6 2  6 4 -6 4  6 6 -6 6

:CHA001: TOTAL VALENCE CHARGE INSIDE SPHERE   1 =   0.7588    (RMT=  1.5100 )
:PCS001: PARTIAL CHARGES SPHERE =  1 S,P,D,F,PX,PY,PZ,D-Z2,D-X2Y2,D-XY,D-XZ,D-YZ 
:QTL001: 0.2563 0.3408 0.1439 0.0146 0.1144 0.1158 0.1106 0.0169 0.0228 0.0320 0.0366 0.0355
        Q-s-low E-s-low   Q-p-low E-p-low   Q-d-low E-d-low   Q-f-low E-f-low
:EPL001:  0.0727 -1.3186    0.0650 -1.2403    0.0209 -1.2403    0.0030 -1.2858
        Q-s-hi  E-s-hi    Q-p-hi  E-p-hi    Q-d-hi  E-d-hi    Q-f-hi  E-f-hi 
:EPH001:  0.1836 -0.4778    0.2757 -0.3146    0.1230 -0.1642    0.0115 -0.1389

                      QXX         QXY         QYY         QZZ       UP TO R
:VZZ001:            -0.21858     0.19473    -0.52782     0.74641       1.510

:POS002: ATOM   -2 X,Y,Z = 0.14451 0.41337 0.61807  MULT= 6  ZZ=  8.000  O         

       LMMAX 49

:CHA002: TOTAL VALENCE CHARGE INSIDE SPHERE   2 =   5.1803    (RMT=  1.5100 )
:PCS002: PARTIAL CHARGES SPHERE =  2 S,P,D,F,PX,PY,PZ,D-Z2,D-X2Y2,D-XY,D-XZ,D-YZ 
:QTL002: 1.4986 3.6682 0.0104 0.0028 1.2146 1.2319 1.2217 0.0017 0.0023 0.0019 0.0023 0.0023
        Q-s-low E-s-low   Q-p-low E-p-low   Q-d-low E-d-low   Q-f-low E-f-low
:EPL002:  1.4282 -1.2615    0.0180 -1.2735    0.0030 -1.2722    0.0002 -1.2654
        Q-s-hi  E-s-hi    Q-p-hi  E-p-hi    Q-d-hi  E-d-hi    Q-f-hi  E-f-hi 
:EPH002:  0.0705 -0.2503    3.6501 -0.1580    0.0074 -0.2411    0.0025 -0.2288

                      QXX         QXY         QYY         QZZ       UP TO R
:VZZ002:             1.00264    -2.17169    -1.11045     0.10782       1.510

:CHA  : TOTAL VALENCE CHARGE INSIDE UNIT CELL =      48.000000

:SUM  : SUM OF EIGENVALUES =         -21.517984823


        1.ATOM      Si                    4 CORE STATES
       CORE-FORCE in mRy/a.u. = |F|      Fx             Fy             Fz
:FCO001:   1.ATOM      1.249736972293      0.000000000000      0.000000000000     -1.249736972293

:1S 001: 1S                -130.611323780 Ry
:2S 001: 2S                  -9.602117886 Ry
:2PP001: 2P*                 -6.405132142 Ry
:2P 001: 2P                  -6.357625101 Ry

        2.ATOM      O                     1 CORE STATES
       CORE-FORCE in mRy/a.u. = |F|      Fx             Fy             Fz
:FCO002:   2.ATOM    316.947211641807    243.283258842340    128.455512396575    157.378436481942

:1S 002: 1S                 -36.930802495 Ry
:LCORE   core superposition due to .lcore file
         First and last fourier coefficient of PW representation:
       0    0    0 1.543523214789E-03 0.000000000000E+00
     -12   -5    3 5.725046382237E-07 5.480528023866E-07
:CINT001 Core Integral Atom   1    9.95530222
:CINT002 Core Integral Atom   2    2.00189437

       DENSITY AT NUCLEUS
        JATOM        VALENCE       SEMI-CORE          CORE           TOTAL
:RTO001:   1        5.721416     1886.325383        0.000000     1892.046799
:RTO002:   2       14.748278      303.870834        0.000000      318.619111
 :K-LIST:Reduced k-vector list         3723        1721
     
       CHARGES OF NEW CHARGE DENSITY
:NTO   : INTERSTITIAL CHARGE  =    14.764768
:NPC   : INTERSTITIAL CHARGE  =    24.770677
:NTO001: CHARGE SPHERE   1    =    10.714060
:NTO002: CHARGE SPHERE   2    =     7.182161

:NEC01: NUCLEAR AND ELECTRONIC CHARGE     90.00000    89.99991
     
       CHARGES OF OLD CHARGE DENSITY
:OTO   : INTERSTITIAL CHARGE  =    15.633471
:OPC   : INTERSTITIAL CHARGE  =    24.671635
:OTO001: CHARGE SPHERE   1    =    10.781594
:OTO002: CHARGE SPHERE   2    =     7.003625

:NEC02: NUCLEAR AND ELECTRONIC CHARGE     90.00000    90.00000000
     
       CONVERGENCE TEST
:DTO001: DIFFERENCE IN SPHERE  1 =  0.0996921
:DTO002: DIFFERENCE IN SPHERE  2 =  0.2019506

:DIS  :  CHARGE DISTANCE      (  0.2019506 for atom    2 spin 1)      0.1678644
 
******************************************************
* Multisecant Mixing Release 10.8.4                  *
* Standard Mode with step bound                      *
* Multisecant MSR1 Algorithm                         *
* Regularization       2.000E-04                     *
* Minimum Greed        1.000E-03                     *
* Max Number of Memory Steps    8                    *
******************************************************
 

:FULLRMS/Atom   0.2684957909
:PLANE:  PW /ATOM     4.76652 DISTAN   2.75E-01 %  5.77E+00
:CHARG:  CLM/ATOM    80.85852 DISTAN   2.94E-01 %  3.64E-01

Step History
        Dmix         Dmixt        Red     Pred      Step      Lambda    MagAbs    Beta
  1   2.2127E-01   3.5000E-01  1.00E+00  1.00E+00  1.25E-01  1.00E+00  1.13E-01  1.00E+00
  2   2.2127E-01   2.1461E-02  8.25E-01  1.00E+00  1.25E-01  1.00E+00  1.13E-01  1.00E+00
  3   2.2127E-01   1.1773E-01  7.07E-01  9.85E-01  1.52E-01  1.00E+00  4.04E-01  1.00E+00
  4   3.1843E-01   2.2058E-01  1.00E+00  5.41E-01  3.01E-01  1.32E+00  5.63E-01  1.00E+00
:NOTE :  Number of Memory Steps    3 Skipping    0

:PREDicted Charge, CTotal, PW Trust   2.79E-01   2.00E+00   1.09E+00
:PREDicted DMix, Beta, BLim           1.44E+00   1.00E+00   1.06E+00

Eigenvalues, unscaled except for SY+YY with Slambda=   1.83224 Ylambda=   1.00000
   #     SY Real       SY Imag         SS            YY        SY+YY Real     SY+YY Imag
   1   6.13987E-01   0.00000E+00   3.12268E-01   1.59438E+00   2.71582E+00   0.00000E+00
   2   9.63678E-02   0.00000E+00   9.31488E-02   1.01175E-01   2.81297E-01   0.00000E+00
   3   9.74763E-04   0.00000E+00   6.53940E-04   1.11872E-03   2.87893E-03   0.00000E+00
 
:SING : Singular value  2.718E+00  Weight  1.000E+00  Projection -3.907E-01
:SING : Singular value  2.810E-01  Weight  1.000E+00  Projection -1.155E+00
:SING : Singular value  2.879E-03  Weight  9.656E-01  Projection -1.822E+01

:RANK :  ACTIVE   2.97/3  =  98.85 % ; YY RANK   2.81/3  =  93.63 %
:TRUST:  Step  7.1E-01 Charge  1.2E-01 (e) CTO  8.5E-01 (e) PW  6.0E-01 (e)
:DTRUS:  Lambda   3.075E-01 Increment   4.829E-15 Iterations    48 DMIX   4.168E-01
:DIRM :  MEMORY  3/8  RED  0.43 PRED  0.54 NEXT  0.28
:NOTE :  Limited by Atoms F by Step T

:DIRP : |MSR1|= 4.238E-01 |PRATT|= 5.503E-01 ANGLE=  14.6 DEGREES
:DIRQ : |MSR1|= 3.843E-01 |PRATT|= 5.882E-01 ANGLE=  28.3 DEGREES
:DIRT : |MSR1|= 5.721E-01 |PRATT|= 8.055E-01 ANGLE=  22.8 DEGREES
:MIX  :   MSR1   REGULARIZATION:  5.44E-04 GREED: 0.53072  LMStep 0.79  0.7103 Step           
     
       CHARGES OF MIXED CHARGE DENSITY
:CTO   : INTERSTITIAL CHARGE  =    15.276794
:CPC   : INTERSTITIAL CHARGE  =    24.634643
:CTO001: CHARGE SPHERE   1    =    10.748753
:CTO002: CHARGE SPHERE   2    =     7.079491

:NEC03: NUCLEAR AND ELECTRONIC CHARGE     90.00000    89.99999999

PW CHANGE     H    K    L             Current                    Change               Residue
:PTO001:      0    0    0  5.25805291E-02 0.00000000E+00 -5.186E-04  0.000E+00 -1.014E-03  0.000E+00
:PTO002:      0    0   -1 -1.11827856E-10 0.00000000E+00  3.778E-10  0.000E+00  5.072E-10  0.000E+00
:PTO003:     -1    0    0 -3.76214420E-02 0.00000000E+00  6.666E-05  0.000E+00  2.986E-04  0.000E+00
:PTO004:     -1    0   -1  4.34211561E-02-7.52076467E-02  2.022E-04 -3.502E-04  2.750E-04 -4.764E-04
:PTO005:     -1    0    1  2.59498351E-02 4.49464318E-02  1.376E-04  2.383E-04  1.488E-04  2.577E-04
:PTO006:      0    0   -2 -2.35497473E-11 0.00000000E+00  1.692E-10  0.000E+00  2.180E-10  0.000E+00
:PTO007:     -2    1    0 -1.53799502E-02-2.38935449E-02  3.072E-05 -2.374E-04 -6.379E-05 -7.092E-04
:PTO008:     -1   -1    0 -1.53799502E-02 2.38935449E-02  3.072E-05  2.374E-04 -6.379E-05  7.092E-04
:PTO009:     -1    0   -2  3.83434794E-02 6.64128576E-02  2.655E-04  4.598E-04  1.053E-03  1.824E-03
:PTO010:     -1    0    2  1.56443836E-03-2.70968686E-03  6.123E-05 -1.061E-04  2.771E-04 -4.800E-04
:PTO011:     -2    1   -1 -4.72857866E-02-2.59610990E-02 -5.447E-04  7.070E-06 -1.569E-03 -6.457E-04
:PTO012:     -1   -1   -1  4.61258640E-02 2.79701439E-02  2.662E-04  4.753E-04  1.343E-03  1.036E-03

:ENE  : ********** TOTAL ENERGY IN Ry =        -2644.26799273

:FOR001:   1.ATOM          3.420          0.000          0.000         -3.420 partial forces
:FOR002:   2.ATOM        510.687       -393.356       -208.847       -249.910 partial forces
       TOTAL FORCE WITH RESPECT TO THE GLOBAL COORDINATE SYSTEM:
:FGL001:   1.ATOM                -3.420224825    -3.420224825     0.000000000 partial forces
:FGL002:   2.ATOM              -454.208600406  -435.950978934  -249.909991591 partial forces
 Euler-Maclaurian Coulomb
 Consistent 3/8+Simpson combinations at start/end
 New Mode for Coulomb Integral
 Extension of core to zero
 LDM version in phi
 Fifth-order quadrature in outwin
 Lebedev-Laikov Grid in lapw0


            ---------
:ITE005:  5. ITERATION
            ---------

:NATO :    2 INDEPENDENT AND    9 TOTAL ATOMS IN UNITCELL
       SUBSTANCE: SiO2 for tests                                              

       LATTICE                      = H   
:LAT  : LATTICE CONSTANTS=  9.26193  9.26193 10.21737
:VOL  : UNIT CELL VOLUME =     759.05354
:POT  : POTENTIAL OPTION EX_PBE EC_PBE VX_PBE VC_PBE
       MODE OF CALCULATION IS       = RELA
       NON-SPINPOLARIZED CALCULATION
:IFFT  : FFT-parameters:   72   72   80 Factor: 2.00


   CONVERGENCE PARAMETER FOR PSEUDOCHARGE: NCON=  9
   MAXIMAL VALUE OF RMT(JATOM)*ABSK(NKK) : RK  =18.11505


:VKCOUL :  VK-COUL convergence: 0.251E-05
 Lebedev grid of          350
 Lebedev grid of          350
 :rho_min:  2.000000000000000E-008  1.000000000000000E-009
:VCOUL001 ATOMNUMBER=  1 Si      VCOUL-ZERO = -0.10986E+01
:EFG001:                        EFG         =     0.65309   *10**21  V / m**2
                               V20  TOT/SRF=     0.56560     0.02059
                               V22  TOT/SRF=     0.14554     0.00299
                               V22M TOT/SRF=     0.14948    -0.01026
                               V21  TOT/SRF=     0.00000     0.00000
                               V21M TOT/SRF=     0.00000     0.00000

             -0.18101    0.14948    0.00000       -0.11792    0.00000    0.00000
              0.14948   -0.47209    0.00000        0.00000   -0.53517    0.00000
              0.00000    0.00000    0.65309        0.00000    0.00000    0.65309

         MAIN DIRECTIONS OF THE EFG   1.0000 -0.4220  0.0000
                                      0.4220  1.0000  0.0000
                                      0.0000  0.0000  1.0000
:ANG001:  ANGLE WITH OLD X-AXIS =        22.9

:ETA001:                         ASYMM. ETA =     0.63889


:VCOUL002 ATOMNUMBER=  2 O       VCOUL-ZERO = -0.23332E-01
:EFG002:                        EFG         =     7.23304   *10**21  V / m**2
                               V20  TOT/SRF=     0.10061     0.02403
                               V22  TOT/SRF=     1.45632     0.55177
                               V22M TOT/SRF=    -3.08928    -1.21879
                               V21  TOT/SRF=    -3.92404    -1.49872
                               V21M TOT/SRF=     3.56559     1.31742

              1.39823   -3.08928   -3.92404        7.23304    0.00000    0.00000
             -3.08928   -1.51441    3.56559        0.00000   -2.87592    0.00000
             -3.92404    3.56559    0.11617        0.00000    0.00000   -4.35712

         MAIN DIRECTIONS OF THE EFG   1.0000  1.0000 -0.0166
                                     -0.7262  0.5496  1.0000
                                     -0.9152  0.6566 -0.8117
:ANG002:  ANGLE WITH OLD X-AXIS =        45.0

:ETA002:                         ASYMM. ETA =     0.20478


     HELLMANN-FEYNMAN-FORCE IN mRy/a.u. = |F|  Fx       Fy             Fz
:FHF001:   1.ATOM     19.871240173746      0.000000000000      0.000000000000     19.871240173746

     HELLMANN-FEYNMAN-FORCE IN mRy/a.u. = |F|  Fx       Fy             Fz
:FHF002:   2.ATOM    557.640804821188   -429.663955364602   -223.177440103695   -276.665832532369

:FIT001: LUSE= 13 SIGMA OF V-XC FIT FOR ATOM  1  0.1038762E-01
:FIT001: LUSE= 13 SIGMA OF V-XC FIT FOR ATOM  1  0.1038762E-01
:FIT002: LUSE= 13 SIGMA OF V-XC FIT FOR ATOM  2  0.3476021E-03
:FIT002: LUSE= 13 SIGMA OF V-XC FIT FOR ATOM  2  0.3476021E-03
:DEN  : DENSITY INTEGRAL  =         -1225.56586983   (Ry)
       ELS_POTENTIAL_AT Z=0 and Z=0.5:   0.05071  -0.08184
       ELS_POTENTIAL_AT Y=0 and Y=0.5:   0.00000   0.00000
:VZERO:v0,v0c,v0x  -0.64115   0.05071  -0.69186 v5,v5c,v5x  -0.71497  -0.08184  -0.63313
:VZERY:v0,v0c,v0x  -0.66434   0.00000  -0.66434 v5,v5c,v5x  -0.66434   0.00000  -0.66434
:VZERX:v0,v0c,v0x  -0.07358   0.26683  -0.34041 v5,v5c,v5x  -2.43397  -1.57645  -0.85752
:LMAX-WF:   10   Non-Spherical LMAX:   4

          ATOMIC SPHERE DEPENDENT PARAMETERS FOR ATOM  Si        
:e__0001: OVERALL ENERGY PARAMETER IS   -0.1841
          OVERALL BASIS SET ON ATOM IS LAPW
:E0_0001: E( 0)=   -0.1841
             APW+lo
:E1_0001: E( 1)=   -0.1841
             APW+lo

          ATOMIC SPHERE DEPENDENT PARAMETERS FOR ATOM  O         
:e__0002: OVERALL ENERGY PARAMETER IS   -0.1841
          OVERALL BASIS SET ON ATOM IS LAPW
:E0_0002: E( 0)=    0.2159
             APW+lo
:E0_0002: E( 0)=   -0.9108   E(BOTTOM)=   -2.600   E(TOP)=    0.779  1  2   271
             LOCAL ORBITAL
:E1_0002: E( 1)=   -0.1841
             APW+lo

       K=  0.000000  0.000000  0.000000            1
:RKM  : MATRIX SIZE  1317LOs:  42  RKM= 6.98  WEIGHT= 1.00  PGR:    
       EIGENVALUES ARE:
:EIG00001:      -1.3396431   -1.2275189   -1.2275189   -1.1796688   -1.1775901
:EIG00006:      -1.1775901   -0.5137795   -0.5137795   -0.3077291   -0.3054494
:EIG00011:      -0.2927653   -0.2927653   -0.1253840   -0.1253840   -0.1071731
:EIG00016:      -0.0892586   -0.0187511   -0.0187511   -0.0170313    0.0161621
:EIG00021:       0.0161621    0.0388342    0.0671986    0.0671986    0.5367175
:EIG00026:       0.7803489    0.7803489    0.8155536    0.8155537    0.9076065
:EIG00031:       0.9543013    0.9984059    1.0266690    1.0266690    1.0775692
:EIG00036:       1.0775692    1.1331476    1.1954660    1.2001084    1.2001084
:EIG00041:       1.2051003    1.2051003    1.3250127    1.3250127    1.4154592
:EIG00046:       1.4660660    1.4660660
 
       ********************************************************

:KPT   :      NUMBER OF K-POINTS:   284
       Insulator, EF-inconsistency corrected
:GAP (global)   :  0.446972 Ry =     6.081 eV (accurate value if proper k-mesh)
         Bandranges (emin - emax) and occupancy:
:BAN00014:  14   -0.143115   -0.103230  2.00000000
:BAN00015:  15   -0.120641   -0.085489  2.00000000
:BAN00016:  16   -0.090241   -0.052845  2.00000000
:BAN00017:  17   -0.067399   -0.018751  2.00000000
:BAN00018:  18   -0.051794   -0.018610  2.00000000
:BAN00019:  19   -0.043223    0.018722  2.00000000
:BAN00020:  20   -0.021736    0.021219  2.00000000
:BAN00021:  21    0.000790    0.026537  2.00000000
:BAN00022:  22    0.026763    0.073509  2.00000000
:BAN00023:  23    0.043516    0.079602  2.00000000
:BAN00024:  24    0.047364    0.089746  2.00000000
:BAN00025:  25    0.536717    0.758787  0.00000000
:BAN00026:  26    0.680085    0.816213  0.00000000
:BAN00027:  27    0.762416    0.820517  0.00000000
:BAN00028:  28    0.777893    0.861438  0.00000000
:BAN00029:  29    0.811301    0.874293  0.00000000
        Energy to separate low and high energystates:   -0.64365


:NOE  : NUMBER OF ELECTRONS          =   48.000

:FER  : F E R M I - ENERGY(TETRAH.M.)=   0.0897455911
:GMA  : POTENTIAL AND CHARGE CUT-OFF  12.00 Ry**.5

:POS001: ATOM   -1 X,Y,Z = 0.46913 0.46913 0.50000  MULT= 3  ZZ= 14.000  Si        

       LMMAX 25
       LM=   0 0  1 0  2 0  2 2 -2 2  3 0  3 2 -3 2  4 0  4 2 -4 2  4 4 -4 4  5 0  5 2 -5 2  5 4
        -5 4  6 0  6 2 -6 2  6 4 -6 4  6 6 -6 6

:CHA001: TOTAL VALENCE CHARGE INSIDE SPHERE   1 =   0.7772    (RMT=  1.5100 )
:PCS001: PARTIAL CHARGES SPHERE =  1 S,P,D,F,PX,PY,PZ,D-Z2,D-X2Y2,D-XY,D-XZ,D-YZ 
:QTL001: 0.2625 0.3499 0.1471 0.0145 0.1174 0.1189 0.1136 0.0175 0.0234 0.0327 0.0373 0.0362
        Q-s-low E-s-low   Q-p-low E-p-low   Q-d-low E-d-low   Q-f-low E-f-low
:EPL001:  0.0752 -1.2791    0.0665 -1.1984    0.0210 -1.1984    0.0030 -1.2453
        Q-s-hi  E-s-hi    Q-p-hi  E-p-hi    Q-d-hi  E-d-hi    Q-f-hi  E-f-hi 
:EPH001:  0.1873 -0.4432    0.2835 -0.2779    0.1261 -0.1250    0.0115 -0.0985

                      QXX         QXY         QYY         QZZ       UP TO R
:VZZ001:            -0.20599     0.19734    -0.54776     0.75375       1.510

:POS002: ATOM   -2 X,Y,Z = 0.14451 0.41337 0.61807  MULT= 6  ZZ=  8.000  O         

       LMMAX 49

:CHA002: TOTAL VALENCE CHARGE INSIDE SPHERE   2 =   5.1162    (RMT=  1.5100 )
:PCS002: PARTIAL CHARGES SPHERE =  2 S,P,D,F,PX,PY,PZ,D-Z2,D-X2Y2,D-XY,D-XZ,D-YZ 
:QTL002: 1.4898 3.6128 0.0105 0.0028 1.1965 1.2130 1.2033 0.0017 0.0023 0.0019 0.0023 0.0023
        Q-s-low E-s-low   Q-p-low E-p-low   Q-d-low E-d-low   Q-f-low E-f-low
:EPL002:  1.4170 -1.2204    0.0177 -1.2333    0.0030 -1.2316    0.0002 -1.2244
        Q-s-hi  E-s-hi    Q-p-hi  E-p-hi    Q-d-hi  E-d-hi    Q-f-hi  E-f-hi 
:EPH002:  0.0728 -0.2193    3.5951 -0.1216    0.0076 -0.2033    0.0026 -0.1927

                      QXX         QXY         QYY         QZZ       UP TO R
:VZZ002:             0.96943    -2.09647    -1.07388     0.10445       1.510

:CHA  : TOTAL VALENCE CHARGE INSIDE UNIT CELL =      48.000000

:SUM  : SUM OF EIGENVALUES =         -19.744325814


        1.ATOM      Si                    4 CORE STATES
       CORE-FORCE in mRy/a.u. = |F|      Fx             Fy             Fz
:FCO001:   1.ATOM     18.529706806969      0.000000000000      0.000000000000    -18.529706806969

:1S 001: 1S                -130.611003401 Ry
:2S 001: 2S                  -9.606771261 Ry
:2PP001: 2P*                 -6.409017158 Ry
:2P 001: 2P                  -6.361510131 Ry

        2.ATOM      O                     1 CORE STATES
       CORE-FORCE in mRy/a.u. = |F|      Fx             Fy             Fz
:FCO002:   2.ATOM    332.486990366686    255.449945717280    132.543447497658    166.508734069930

:1S 002: 1S                 -36.903040759 Ry
:LCORE   core superposition due to .lcore file
         First and last fourier coefficient of PW representation:
       0    0    0 1.536888818901E-03 0.000000000000E+00
     -12   -5    3 5.715405966582E-07 5.471298776776E-07
:CINT001 Core Integral Atom   1    9.95555660
:CINT002 Core Integral Atom   2    2.00188225

       DENSITY AT NUCLEUS
        JATOM        VALENCE       SEMI-CORE          CORE           TOTAL
:RTO001:   1        5.858860     1886.352443        0.000000     1892.211302
:RTO002:   2       14.590342      303.991302        0.000000      318.581645
 :K-LIST:Reduced k-vector list         3723        1721
     
       CHARGES OF NEW CHARGE DENSITY
:NTO   : INTERSTITIAL CHARGE  =    15.093175
:NPC   : INTERSTITIAL CHARGE  =    24.625029
:NTO001: CHARGE SPHERE   1    =    10.732736
:NTO002: CHARGE SPHERE   2    =     7.118089

:NEC01: NUCLEAR AND ELECTRONIC CHARGE     90.00000    89.99992
     
       CHARGES OF OLD CHARGE DENSITY
:OTO   : INTERSTITIAL CHARGE  =    15.276794
:OPC   : INTERSTITIAL CHARGE  =    24.634643
:OTO001: CHARGE SPHERE   1    =    10.748753
:OTO002: CHARGE SPHERE   2    =     7.079491

:NEC02: NUCLEAR AND ELECTRONIC CHARGE     90.00000    90.00000000
     
       CONVERGENCE TEST
:DTO001: DIFFERENCE IN SPHERE  1 =  0.0248665
:DTO002: DIFFERENCE IN SPHERE  2 =  0.0461089

:DIS  :  CHARGE DISTANCE      (  0.0461089 for atom    2 spin 1)      0.0390281
 
******************************************************
* Multisecant Mixing Release 10.8.4                  *
* Standard Mode with step bound                      *
* Multisecant MSR1 Algorithm                         *
* Regularization       2.000E-04                     *
* Minimum Greed        1.000E-03                     *
* Max Number of Memory Steps    8                    *
******************************************************
 

:FULLRMS/Atom   0.0704873884
:PLANE:  PW /ATOM     4.73524 DISTAN   7.87E-02 %  1.66E+00
:CHARG:  CLM/ATOM    80.79203 DISTAN   7.06E-02 %  8.74E-02

Step History
        Dmix         Dmixt        Red     Pred      Step      Lambda    MagAbs    Beta
  1   2.2127E-01   3.5000E-01  1.00E+00  1.00E+00  1.25E-01  1.00E+00  1.13E-01  1.00E+00
  2   2.2127E-01   2.1461E-02  8.25E-01  1.00E+00  1.25E-01  1.00E+00  1.13E-01  1.00E+00
  3   2.2127E-01   1.1773E-01  7.07E-01  9.85E-01  1.52E-01  1.00E+00  4.04E-01  1.00E+00
  4   3.1843E-01   2.2058E-01  4.30E-01  5.41E-01  3.01E-01  1.32E+00  5.63E-01  1.00E+00
  5   5.3072E-01   4.1682E-01  1.00E+00  2.83E-01  7.10E-01  1.83E+00  5.72E-01  1.00E+00
:NOTE :  Number of Memory Steps    4 Skipping    0

:PREDicted Charge, CTotal, PW Trust   1.20E-01   9.32E-01   5.05E-01
:PREDicted DMix, Beta, BLim           1.71E+00   1.07E+00   2.20E+00

Eigenvalues, unscaled except for SY+YY with Slambda=   1.70292 Ylambda=   1.00000
   #     SY Real       SY Imag         SS            YY        SY+YY Real     SY+YY Imag
   1   8.55036E-01   0.00000E+00   7.31107E-01   1.80480E+00   3.25221E+00   0.00000E+00
   2   2.28245E-01   0.00000E+00   1.66098E-01   2.36766E-01   6.29556E-01   0.00000E+00
   3   3.79555E-02   0.00000E+00   2.19625E-02   4.89878E-02   1.18166E-01   0.00000E+00
   4   1.94298E-05   0.00000E+00   1.16723E-05   3.35537E-05   6.70937E-05   0.00000E+00
 
:SING : Singular value  3.267E+00  Weight  1.000E+00  Projection -1.392E-01
:SING : Singular value  6.268E-01  Weight  1.000E+00  Projection -2.952E-01
:SING : Singular value  1.181E-01  Weight  1.000E+00  Projection -2.779E-01
:SING : Singular value  6.709E-05  Weight  1.043E-02  Projection  3.519E-02

:RANK :  ACTIVE   3.01/4  =  75.26 % ; YY RANK   3.00/4  =  75.06 %
:TRUST:  Step  1.8E+00 Charge  1.1E-01 (e) CTO  8.3E-01 (e) PW  2.8E-01 (e)
:DIRM :  MEMORY  4/8  RED  0.26 PRED  0.28 NEXT  0.19
:DIRP : |MSR1|= 1.685E-01 |PRATT|= 1.574E-01 ANGLE=  11.5 DEGREES
:DIRQ : |MSR1|= 1.346E-01 |PRATT|= 1.412E-01 ANGLE=  23.3 DEGREES
:DIRT : |MSR1|= 2.156E-01 |PRATT|= 2.115E-01 ANGLE=  17.7 DEGREES
:MIX  :   MSE1   REGULARIZATION:  6.53E-04 GREED: 0.88453  Newton 1.00  1.0197                
     
       CHARGES OF MIXED CHARGE DENSITY
:CTO   : INTERSTITIAL CHARGE  =    15.175201
:CPC   : INTERSTITIAL CHARGE  =    24.581668
:CTO001: CHARGE SPHERE   1    =    10.737227
:CTO002: CHARGE SPHERE   2    =     7.102186

:NEC03: NUCLEAR AND ELECTRONIC CHARGE     90.00000    90.00000000

PW CHANGE     H    K    L             Current                    Change               Residue
:PTO001:      0    0    0  5.23768963E-02 0.00000000E+00 -2.036E-04  0.000E+00 -2.543E-04  0.000E+00
:PTO002:      0    0   -1  1.91000058E-11 0.00000000E+00  1.309E-10  0.000E+00  1.294E-10  0.000E+00
:PTO003:     -1    0    0 -3.74778337E-02 0.00000000E+00  1.436E-04  0.000E+00  1.514E-04  0.000E+00
:PTO004:     -1    0   -1  4.34171446E-02-7.52006985E-02 -4.012E-06  6.948E-06  2.080E-05 -3.602E-05
:PTO005:     -1    0    1  2.59279804E-02 4.49085783E-02 -2.185E-05 -3.785E-05 -8.818E-06 -1.527E-05
:PTO006:      0    0   -2  2.72729937E-11 0.00000000E+00  5.082E-11  0.000E+00  4.863E-11  0.000E+00
:PTO007:     -2    1    0 -1.53580289E-02-2.40056215E-02  2.192E-05 -1.121E-04 -2.799E-06 -1.924E-04
:PTO008:     -1   -1    0 -1.53580289E-02 2.40056215E-02  2.192E-05  1.121E-04 -2.799E-06  1.924E-04
:PTO009:     -1    0   -2  3.84582083E-02 6.66115739E-02  1.147E-04  1.987E-04  2.644E-04  4.579E-04
:PTO010:     -1    0    2  1.62118483E-03-2.80797463E-03  5.675E-05 -9.829E-05  9.377E-05 -1.624E-04
:PTO011:     -2    1   -1 -4.74829832E-02-2.59964353E-02 -1.972E-04 -3.534E-05 -3.816E-04 -1.732E-04
:PTO012:     -1   -1   -1  4.62550644E-02 2.81232530E-02  1.292E-04  1.531E-04  3.408E-04  2.439E-04

:ENE  : ********** TOTAL ENERGY IN Ry =        -2644.24555724

:FOR001:   1.ATOM          1.342          0.000          0.000          1.342 partial forces
:FOR002:   2.ATOM        225.166       -174.214        -90.634       -110.157 partial forces
       TOTAL FORCE WITH RESPECT TO THE GLOBAL COORDINATE SYSTEM:
:FGL001:   1.ATOM                 1.341533367     1.341533367     0.000000000 partial forces
:FGL002:   2.ATOM              -201.165010733  -191.216497973  -110.157098462 partial forces
 Euler-Maclaurian Coulomb
 Consistent 3/8+Simpson combinations at start/end
 New Mode for Coulomb Integral
 Extension of core to zero
 LDM version in phi
 Fifth-order quadrature in outwin
 Lebedev-Laikov Grid in lapw0


            ---------
:ITE006:  6. ITERATION
            ---------

:NATO :    2 INDEPENDENT AND    9 TOTAL ATOMS IN UNITCELL
       SUBSTANCE: SiO2 for tests                                              

       LATTICE                      = H   
:LAT  : LATTICE CONSTANTS=  9.26193  9.26193 10.21737
:VOL  : UNIT CELL VOLUME =     759.05354
:POT  : POTENTIAL OPTION EX_PBE EC_PBE VX_PBE VC_PBE
       MODE OF CALCULATION IS       = RELA
       NON-SPINPOLARIZED CALCULATION
:IFFT  : FFT-parameters:   72   72   80 Factor: 2.00


   CONVERGENCE PARAMETER FOR PSEUDOCHARGE: NCON=  9
   MAXIMAL VALUE OF RMT(JATOM)*ABSK(NKK) : RK  =18.11505


:VKCOUL :  VK-COUL convergence: 0.250E-05
 Lebedev grid of          350
 Lebedev grid of          350
 :rho_min:  2.000000000000000E-008  1.000000000000000E-009
:VCOUL001 ATOMNUMBER=  1 Si      VCOUL-ZERO = -0.10981E+01
:EFG001:                        EFG         =     0.76501   *10**21  V / m**2
                               V20  TOT/SRF=     0.66252     0.02584
                               V22  TOT/SRF=     0.17672     0.00345
                               V22M TOT/SRF=     0.17973    -0.00907
                               V21  TOT/SRF=     0.00000     0.00000
                               V21M TOT/SRF=     0.00000     0.00000

             -0.20579    0.17973    0.00000       -0.13045    0.00000    0.00000
              0.17973   -0.55922    0.00000        0.00000   -0.63456    0.00000
              0.00000    0.00000    0.76501        0.00000    0.00000    0.76501

         MAIN DIRECTIONS OF THE EFG   1.0000 -0.4192  0.0000
                                      0.4192  1.0000  0.0000
                                      0.0000  0.0000  1.0000
:ANG001:  ANGLE WITH OLD X-AXIS =        22.7

:ETA001:                         ASYMM. ETA =     0.65895


:VCOUL002 ATOMNUMBER=  2 O       VCOUL-ZERO = -0.71358E-02
:EFG002:                        EFG         =     8.05006   *10**21  V / m**2
                               V20  TOT/SRF=     0.11599     0.02411
                               V22  TOT/SRF=     1.62494     0.54847
                               V22M TOT/SRF=    -3.43338    -1.21077
                               V21  TOT/SRF=    -4.36768    -1.48871
                               V21M TOT/SRF=     3.97138     1.30778

              1.55797   -3.43338   -4.36768        8.05006    0.00000    0.00000
             -3.43338   -1.69190    3.97138        0.00000   -3.19566    0.00000
             -4.36768    3.97138    0.13393        0.00000    0.00000   -4.85440

         MAIN DIRECTIONS OF THE EFG   1.0000  1.0000 -0.0170
                                     -0.7258  0.5494  1.0000
                                     -0.9159  0.6565 -0.8110
:ANG002:  ANGLE WITH OLD X-AXIS =        45.0

:ETA002:                         ASYMM. ETA =     0.20605


     HELLMANN-FEYNMAN-FORCE IN mRy/a.u. = |F|  Fx       Fy             Fz
:FHF001:   1.ATOM     21.584105190787      0.000000000000      0.000000000000     21.584105190787

     HELLMANN-FEYNMAN-FORCE IN mRy/a.u. = |F|  Fx       Fy             Fz
:FHF002:   2.ATOM    498.124097143021   -382.275276411349   -202.457240975353   -246.990475071053

:FIT001: LUSE= 13 SIGMA OF V-XC FIT FOR ATOM  1  0.1220354E-01
:FIT001: LUSE= 13 SIGMA OF V-XC FIT FOR ATOM  1  0.1220354E-01
:FIT002: LUSE= 13 SIGMA OF V-XC FIT FOR ATOM  2  0.4391883E-03
[...]
   3   1.86359E-01   0.00000E+00   1.38362E-01   2.54853E-01   5.39917E-01   0.00000E+00
   4   4.60608E-02   0.00000E+00   2.90092E-02   5.81907E-02   1.32889E-01   0.00000E+00
   5   1.27622E-05   0.00000E+00   2.14473E-03   2.76861E-03   6.64213E-03   0.00000E+00
   6   2.51062E-03   0.00000E+00   6.63163E-06   2.44597E-05   4.39387E-05   0.00000E+00
 
:SING : Singular value  3.930E+00  Weight  1.000E+00  Projection  1.036E-04
:SING : Singular value  1.411E+00  Weight  1.000E+00  Projection -2.018E-03
:SING : Singular value  5.395E-01  Weight  1.000E+00  Projection  5.901E-03
:SING : Singular value  1.329E-01  Weight  1.000E+00  Projection  4.127E-03
:SING : Singular value  6.642E-03  Weight  9.862E-01  Projection  1.966E-02
:SING : Singular value  4.394E-05  Weight  3.116E-03  Projection  5.001E-05

:RANK :  ACTIVE   4.99/6  =  83.15 % ; YY RANK   4.93/6  =  82.10 %
:TRUST:  Step  3.3E+01 Charge  4.2E-02 (e) CTO  3.2E-01 (e) PW  9.7E-02 (e)
:DIRM :  MEMORY  6/8  RED  0.44 PRED  0.79 NEXT  0.27
:DIRP : |MSR1|= 1.607E-03 |PRATT|= 2.531E-03 ANGLE=   4.0 DEGREES
:DIRQ : |MSR1|= 2.065E-03 |PRATT|= 3.224E-03 ANGLE=   3.5 DEGREES
:DIRT : |MSR1|= 2.617E-03 |PRATT|= 4.099E-03 ANGLE=   3.7 DEGREES
:MIX  :   MSE1   REGULARIZATION:  7.86E-04 GREED: 0.95175  Newton 1.00  0.6384                
     
       CHARGES OF MIXED CHARGE DENSITY
:CTO   : INTERSTITIAL CHARGE  =    15.173840
:CPC   : INTERSTITIAL CHARGE  =    24.576691
:CTO001: CHARGE SPHERE   1    =    10.737667
:CTO002: CHARGE SPHERE   2    =     7.102193

:NEC03: NUCLEAR AND ELECTRONIC CHARGE     90.00000    90.00000000

PW CHANGE     H    K    L             Current                    Change               Residue
:PTO001:      0    0    0  5.23685470E-02 0.00000000E+00  3.604E-07  0.000E+00  6.529E-07  0.000E+00
:PTO002:      0    0   -1  1.76178717E-11 0.00000000E+00  2.819E-14  0.000E+00 -1.238E-14  0.000E+00
:PTO003:     -1    0    0 -3.74924646E-02 0.00000000E+00  1.739E-05  0.000E+00  2.738E-05  0.000E+00
:PTO004:     -1    0   -1  4.34124731E-02-7.51926072E-02 -3.832E-07  6.638E-07 -7.355E-07  1.274E-06
:PTO005:     -1    0    1  2.59309484E-02 4.49137190E-02 -4.508E-06 -7.808E-06 -7.213E-06 -1.249E-05
:PTO006:      0    0   -2  2.50461497E-11 0.00000000E+00 -3.608E-15  0.000E+00 -1.638E-14  0.000E+00
:PTO007:     -2    1    0 -1.53440726E-02-2.40008359E-02 -6.277E-06 -2.404E-06 -9.958E-06 -3.915E-06
:PTO008:     -1   -1    0 -1.53440726E-02 2.40008359E-02 -6.277E-06  2.404E-06 -9.958E-06  3.915E-06
:PTO009:     -1    0   -2  3.84504475E-02 6.65981318E-02  3.939E-06  6.823E-06  6.386E-06  1.106E-05
:PTO010:     -1    0    2  1.62886417E-03-2.82127564E-03 -3.208E-06  5.556E-06 -4.988E-06  8.639E-06
:PTO011:     -2    1   -1 -4.74812525E-02-2.59891621E-02 -1.057E-06 -4.979E-06 -1.762E-06 -8.042E-06
:PTO012:     -1   -1   -1  4.62479003E-02 2.81253908E-02  4.841E-06 -1.574E-06  7.845E-06 -2.495E-06

:ENE  : ********** TOTAL ENERGY IN Ry =        -2644.24424667

:FOR001:   1.ATOM          3.137          0.000          0.000          3.137 partial forces
:FOR002:   2.ATOM        132.174       -103.292        -50.599        -65.119 partial forces
       TOTAL FORCE WITH RESPECT TO THE GLOBAL COORDINATE SYSTEM:
:FGL001:   1.ATOM                 3.137094373     3.137094373     0.000000000 partial forces
:FGL002:   2.ATOM              -119.270942149  -110.234926114   -65.119184941 partial forces
 Euler-Maclaurian Coulomb
 Consistent 3/8+Simpson combinations at start/end
 New Mode for Coulomb Integral
 Extension of core to zero
 LDM version in phi
 Fifth-order quadrature in outwin
 Lebedev-Laikov Grid in lapw0


            ---------
:ITE008:  8. ITERATION
            ---------

:NATO :    2 INDEPENDENT AND    9 TOTAL ATOMS IN UNITCELL
       SUBSTANCE: SiO2 for tests                                              

       LATTICE                      = H   
:LAT  : LATTICE CONSTANTS=  9.26193  9.26193 10.21737
:VOL  : UNIT CELL VOLUME =     759.05354
:POT  : POTENTIAL OPTION EX_PBE EC_PBE VX_PBE VC_PBE
       MODE OF CALCULATION IS       = RELA
       NON-SPINPOLARIZED CALCULATION
:IFFT  : FFT-parameters:   72   72   80 Factor: 2.00


   CONVERGENCE PARAMETER FOR PSEUDOCHARGE: NCON=  9
   MAXIMAL VALUE OF RMT(JATOM)*ABSK(NKK) : RK  =18.11505


:VKCOUL :  VK-COUL convergence: 0.250E-05
 Lebedev grid of          350
 Lebedev grid of          350
 :rho_min:  2.000000000000000E-008  1.000000000000000E-009
:VCOUL001 ATOMNUMBER=  1 Si      VCOUL-ZERO = -0.10975E+01
:EFG001:                        EFG         =     0.77048   *10**21  V / m**2
                               V20  TOT/SRF=     0.66725     0.02743
                               V22  TOT/SRF=     0.17899     0.00396
                               V22M TOT/SRF=     0.17987    -0.00901
                               V21  TOT/SRF=     0.00000     0.00000
                               V21M TOT/SRF=     0.00000     0.00000

             -0.20625    0.17987    0.00000       -0.13148    0.00000    0.00000
              0.17987   -0.56423    0.00000        0.00000   -0.63899    0.00000
              0.00000    0.00000    0.77048        0.00000    0.00000    0.77048

         MAIN DIRECTIONS OF THE EFG   1.0000 -0.4157  0.0000
                                      0.4157  1.0000  0.0000
                                      0.0000  0.0000  1.0000
:ANG001:  ANGLE WITH OLD X-AXIS =        22.6

:ETA001:                         ASYMM. ETA =     0.65870


:VCOUL002 ATOMNUMBER=  2 O       VCOUL-ZERO = -0.67441E-02
:EFG002:                        EFG         =     8.09325   *10**21  V / m**2
                               V20  TOT/SRF=     0.11732     0.02406
                               V22  TOT/SRF=     1.63857     0.54776
                               V22M TOT/SRF=    -3.45133    -1.21033
                               V21  TOT/SRF=    -4.39027    -1.48818
                               V21M TOT/SRF=     3.99256     1.30743

              1.57084   -3.45133   -4.39027        8.09325    0.00000    0.00000
             -3.45133   -1.70630    3.99256        0.00000   -3.21005    0.00000
             -4.39027    3.99256    0.13547        0.00000    0.00000   -4.88320

         MAIN DIRECTIONS OF THE EFG   1.0000  1.0000 -0.0158
                                     -0.7252  0.5483  1.0000
                                     -0.9155  0.6579 -0.8094
:ANG002:  ANGLE WITH OLD X-AXIS =        45.0

:ETA002:                         ASYMM. ETA =     0.20673


     HELLMANN-FEYNMAN-FORCE IN mRy/a.u. = |F|  Fx       Fy             Fz
:FHF001:   1.ATOM     24.557484963979      0.000000000000      0.000000000000     24.557484963979

     HELLMANN-FEYNMAN-FORCE IN mRy/a.u. = |F|  Fx       Fy             Fz
:FHF002:   2.ATOM    483.643220776941   -372.202582849713   -193.778487754692   -240.470164484079

:FIT001: LUSE= 13 SIGMA OF V-XC FIT FOR ATOM  1  0.1217874E-01
:FIT001: LUSE= 13 SIGMA OF V-XC FIT FOR ATOM  1  0.1217874E-01
:FIT002: LUSE= 13 SIGMA OF V-XC FIT FOR ATOM  2  0.4387285E-03
:FIT002: LUSE= 13 SIGMA OF V-XC FIT FOR ATOM  2  0.4387285E-03
:DEN  : DENSITY INTEGRAL  =         -1226.04646117   (Ry)
       ELS_POTENTIAL_AT Z=0 and Z=0.5:   0.05094  -0.08230
       ELS_POTENTIAL_AT Y=0 and Y=0.5:   0.00000   0.00000
:VZERO:v0,v0c,v0x  -0.63120   0.05094  -0.68214 v5,v5c,v5x  -0.71118  -0.08230  -0.62888
:VZERY:v0,v0c,v0x  -0.65789   0.00000  -0.65789 v5,v5c,v5x  -0.65789   0.00000  -0.65789
:VZERX:v0,v0c,v0x  -0.06551   0.26478  -0.33029 v5,v5c,v5x  -2.42953  -1.57671  -0.85282
:LMAX-WF:   10   Non-Spherical LMAX:   4

          ATOMIC SPHERE DEPENDENT PARAMETERS FOR ATOM  Si        
:e__0001: OVERALL ENERGY PARAMETER IS   -0.1030
          OVERALL BASIS SET ON ATOM IS LAPW
:E0_0001: E( 0)=   -0.1030
             APW+lo
:E1_0001: E( 1)=   -0.1030
             APW+lo

          ATOMIC SPHERE DEPENDENT PARAMETERS FOR ATOM  O         
:e__0002: OVERALL ENERGY PARAMETER IS   -0.1030
          OVERALL BASIS SET ON ATOM IS LAPW
:E0_0002: E( 0)=    0.2970
             APW+lo
:E0_0002: E( 0)=   -0.8957   E(BOTTOM)=   -2.586   E(TOP)=    0.795  1  2   272
             LOCAL ORBITAL
:E1_0002: E( 1)=   -0.1030
             APW+lo

       K=  0.000000  0.000000  0.000000            1
:RKM  : MATRIX SIZE  1317LOs:  42  RKM= 6.98  WEIGHT= 1.00  PGR:    
       EIGENVALUES ARE:
:EIG00001:      -1.3286515   -1.2157702   -1.2157702   -1.1675376   -1.1653842
:EIG00006:      -1.1653842   -0.5040130   -0.5040130   -0.2974207   -0.2946537
:EIG00011:      -0.2823141   -0.2823141   -0.1159086   -0.1159086   -0.0974690
:EIG00016:      -0.0792714   -0.0077843   -0.0077843   -0.0060956    0.0267618
:EIG00021:       0.0267618    0.0495297    0.0780986    0.0780986    0.5453684
:EIG00026:       0.7881872    0.7881872    0.8240566    0.8240566    0.9148564
:EIG00031:       0.9638889    1.0060483    1.0353167    1.0353167    1.0870221
:EIG00036:       1.0870221    1.1424561    1.2018258    1.2069775    1.2069776
:EIG00041:       1.2114976    1.2114976    1.3312579    1.3312579    1.4211193
:EIG00046:       1.4716485    1.4716485    1.5733967    1.5733967
 
       ********************************************************

:KPT   :      NUMBER OF K-POINTS:   284
       Insulator, EF-inconsistency corrected
:GAP (global)   :  0.444408 Ry =     6.046 eV (accurate value if proper k-mesh)
         Bandranges (emin - emax) and occupancy:
:BAN00014:  14   -0.133465   -0.093582  2.00000000
:BAN00015:  15   -0.111224   -0.075440  2.00000000
:BAN00016:  16   -0.080231   -0.042699  2.00000000
:BAN00017:  17   -0.057156   -0.007784  2.00000000
:BAN00018:  18   -0.041426   -0.007687  2.00000000
:BAN00019:  19   -0.032580    0.029391  2.00000000
:BAN00020:  20   -0.011201    0.032033  2.00000000
:BAN00021:  21    0.011424    0.037242  2.00000000
:BAN00022:  22    0.037553    0.084539  2.00000000
:BAN00023:  23    0.054316    0.090696  2.00000000
:BAN00024:  24    0.058132    0.100961  2.00000000
:BAN00025:  25    0.545368    0.767973  0.00000000
:BAN00026:  26    0.689296    0.824450  0.00000000
:BAN00027:  27    0.769229    0.828895  0.00000000
:BAN00028:  28    0.785182    0.869324  0.00000000
:BAN00029:  29    0.819133    0.882182  0.00000000
        Energy to separate low and high energystates:   -0.63436


:NOE  : NUMBER OF ELECTRONS          =   48.000

:FER  : F E R M I - ENERGY(TETRAH.M.)=   0.1009605472
:GMA  : POTENTIAL AND CHARGE CUT-OFF  12.00 Ry**.5

:POS001: ATOM   -1 X,Y,Z = 0.46913 0.46913 0.50000  MULT= 3  ZZ= 14.000  Si        

       LMMAX 25
       LM=   0 0  1 0  2 0  2 2 -2 2  3 0  3 2 -3 2  4 0  4 2 -4 2  4 4 -4 4  5 0  5 2 -5 2  5 4
        -5 4  6 0  6 2 -6 2  6 4 -6 4  6 6 -6 6

:CHA001: TOTAL VALENCE CHARGE INSIDE SPHERE   1 =   0.7820    (RMT=  1.5100 )
:PCS001: PARTIAL CHARGES SPHERE =  1 S,P,D,F,PX,PY,PZ,D-Z2,D-X2Y2,D-XY,D-XZ,D-YZ 
:QTL001: 0.2641 0.3523 0.1480 0.0145 0.1182 0.1197 0.1143 0.0176 0.0236 0.0328 0.0376 0.0364
        Q-s-low E-s-low   Q-p-low E-p-low   Q-d-low E-d-low   Q-f-low E-f-low
:EPL001:  0.0759 -1.2677    0.0669 -1.1864    0.0211 -1.1864    0.0030 -1.2337
        Q-s-hi  E-s-hi    Q-p-hi  E-p-hi    Q-d-hi  E-d-hi    Q-f-hi  E-f-hi 
:EPH001:  0.1882 -0.4331    0.2854 -0.2674    0.1269 -0.1140    0.0116 -0.0873

                      QXX         QXY         QYY         QZZ       UP TO R
:VZZ001:            -0.20168     0.19806    -0.55642     0.75810       1.510

:POS002: ATOM   -2 X,Y,Z = 0.14451 0.41337 0.61807  MULT= 6  ZZ=  8.000  O         

       LMMAX 49

:CHA002: TOTAL VALENCE CHARGE INSIDE SPHERE   2 =   5.1003    (RMT=  1.5100 )
:PCS002: PARTIAL CHARGES SPHERE =  2 S,P,D,F,PX,PY,PZ,D-Z2,D-X2Y2,D-XY,D-XZ,D-YZ 
:QTL002: 1.4873 3.5993 0.0106 0.0028 1.1921 1.2085 1.1988 0.0017 0.0023 0.0019 0.0023 0.0023
        Q-s-low E-s-low   Q-p-low E-p-low   Q-d-low E-d-low   Q-f-low E-f-low
:EPL002:  1.4138 -1.2085    0.0178 -1.2216    0.0030 -1.2199    0.0002 -1.2126
        Q-s-hi  E-s-hi    Q-p-hi  E-p-hi    Q-d-hi  E-d-hi    Q-f-hi  E-f-hi 
:EPH002:  0.0735 -0.2096    3.5815 -0.1110    0.0076 -0.1924    0.0026 -0.1823

                      QXX         QXY         QYY         QZZ       UP TO R
:VZZ002:             0.97625    -2.10078    -1.08121     0.10495       1.510

:CHA  : TOTAL VALENCE CHARGE INSIDE UNIT CELL =      48.000000

:SUM  : SUM OF EIGENVALUES =         -19.228906634


        1.ATOM      Si                    4 CORE STATES
       CORE-FORCE in mRy/a.u. = |F|      Fx             Fy             Fz
:FCO001:   1.ATOM     21.915962671430      0.000000000000      0.000000000000    -21.915962671430

:1S 001: 1S                -130.612538274 Ry
:2S 001: 2S                  -9.609350344 Ry
:2PP001: 2P*                 -6.411351740 Ry
:2P 001: 2P                  -6.363843850 Ry

        2.ATOM      O                     1 CORE STATES
       CORE-FORCE in mRy/a.u. = |F|      Fx             Fy             Fz
:FCO002:   2.ATOM    346.783492118306    266.231285072135    138.954567974121    173.410845375172

:1S 002: 1S                 -36.900278406 Ry
:LCORE   core superposition due to .lcore file
         First and last fourier coefficient of PW representation:
       0    0    0 1.534449493833E-03 0.000000000000E+00
     -12   -5    3 5.712460939281E-07 5.468479325334E-07
:CINT001 Core Integral Atom   1    9.95565204
:CINT002 Core Integral Atom   2    2.00187768

       DENSITY AT NUCLEUS
        JATOM        VALENCE       SEMI-CORE          CORE           TOTAL
:RTO001:   1        5.889689     1886.365672        0.000000     1892.255360
:RTO002:   2       14.550551      304.031201        0.000000      318.581751
 :K-LIST:Reduced k-vector list         3723        1721
     
       CHARGES OF NEW CHARGE DENSITY
:NTO   : INTERSTITIAL CHARGE  =    15.173868
:NPC   : INTERSTITIAL CHARGE  =    24.576608
:NTO001: CHARGE SPHERE   1    =    10.737695
:NTO002: CHARGE SPHERE   2    =     7.102161

:NEC01: NUCLEAR AND ELECTRONIC CHARGE     90.00000    89.99992
     
       CHARGES OF OLD CHARGE DENSITY
:OTO   : INTERSTITIAL CHARGE  =    15.173840
:OPC   : INTERSTITIAL CHARGE  =    24.576691
:OTO001: CHARGE SPHERE   1    =    10.737667
:OTO002: CHARGE SPHERE   2    =     7.102193

:NEC02: NUCLEAR AND ELECTRONIC CHARGE     90.00000    90.00000000
     
       CONVERGENCE TEST
:DTO001: DIFFERENCE IN SPHERE  1 =  0.0000797
:DTO002: DIFFERENCE IN SPHERE  2 =  0.0000424

:DIS  :  CHARGE DISTANCE      (  0.0000797 for atom    1 spin 1)      0.0000548
 
******************************************************
* Multisecant Mixing Release 10.8.4                  *
* Standard Mode with step bound                      *
* Multisecant MSR1 Algorithm                         *
* Regularization       2.000E-04                     *
* Minimum Greed        1.000E-03                     *
* Max Number of Memory Steps    8                    *
******************************************************
 

:FULLRMS/Atom   0.0001559095
:PLANE:  PW /ATOM     4.71910 DISTAN   8.99E-05 %  1.90E-03
:CHARG:  CLM/ATOM    80.76946 DISTAN   2.16E-04 %  2.67E-04

Step History
        Dmix         Dmixt        Red     Pred      Step      Lambda    MagAbs    Beta
  1   2.2127E-01   3.5000E-01  1.00E+00  1.00E+00  1.25E-01  1.00E+00  1.13E-01  1.00E+00
  2   2.2127E-01   2.1461E-02  8.25E-01  1.00E+00  1.25E-01  1.00E+00  1.13E-01  1.00E+00
  3   2.2127E-01   1.1773E-01  7.07E-01  9.85E-01  1.52E-01  1.00E+00  4.04E-01  1.00E+00
  4   3.1843E-01   2.2058E-01  4.30E-01  5.41E-01  3.01E-01  1.32E+00  5.63E-01  1.00E+00
  5   5.3072E-01   4.1682E-01  2.63E-01  2.83E-01  7.10E-01  1.83E+00  5.72E-01  1.00E+00
  6   8.8453E-01   8.8453E-01  4.44E-02  1.86E-01  1.80E+00  1.70E+00  3.80E-01  1.00E+00
  7   1.0000E+00   1.0000E+00  4.37E-01  7.92E-01  2.43E+01  1.55E+00  2.28E-01  1.00E+00
  8   9.5175E-01   9.5175E-01  1.00E+00  2.69E-01  3.34E+01  1.52E+00  1.37E-01  1.00E+00
:NOTE :  Number of Memory Steps    7 Skipping    0

:PREDicted Charge, CTotal, PW Trust   4.26E-04   3.19E-03   3.06E-04
:PREDicted DMix, Beta, BLim           4.26E+00   1.00E+00   3.08E+00

Eigenvalues, unscaled except for SY+YY with Slambda=   1.49205 Ylambda=   1.00000
   #     SY Real       SY Imag         SS            YY        SY+YY Real     SY+YY Imag
   1   1.29266E+00   0.00000E+00   1.38564E+00   2.08285E+00   3.91382E+00   0.00000E+00
   2   5.61204E-01   0.00000E+00   3.17458E-01   8.68442E-01   1.76898E+00   0.00000E+00
   3   3.44331E-01   0.00000E+00   2.04074E-01   4.91090E-01   1.03556E+00   0.00000E+00
   4   8.02632E-02   0.00000E+00   7.80461E-02   8.37655E-02   2.05210E-01   0.00000E+00
   5   2.62624E-02   0.00000E+00   1.87264E-02   3.16967E-02   7.30431E-02   0.00000E+00
   6   1.27743E-05   0.00000E+00   1.18199E-03   1.44879E-03   3.34602E-03   0.00000E+00
   7   1.26903E-03   0.00000E+00   6.65153E-06   2.44352E-05   4.36419E-05   0.00000E+00
 
:SING : Singular value  3.948E+00  Weight  1.000E+00  Projection -8.095E-06
:SING : Singular value  1.760E+00  Weight  1.000E+00  Projection  1.721E-04
:SING : Singular value  1.032E+00  Weight  1.000E+00  Projection -1.933E-05
:SING : Singular value  2.052E-01  Weight  1.000E+00  Projection  1.553E-04
:SING : Singular value  7.303E-02  Weight  9.999E-01  Projection -6.995E-05
:SING : Singular value  3.346E-03  Weight  9.473E-01  Projection -3.057E-04
:SING : Singular value  4.364E-05  Weight  3.046E-03  Projection -4.081E-06

:RANK :  ACTIVE   5.95/7  =  85.00 % ; YY RANK   5.77/7  =  82.45 %
:TRUST:  Step  1.8E+02 Charge  3.2E-02 (e) CTO  2.4E-01 (e) PW  1.9E-01 (e)
:DIRM :  MEMORY  7/8  RED  0.11 PRED  0.27 NEXT  0.94
:DIRP : |MSR1|= 1.655E-04 |PRATT|= 1.798E-04 ANGLE=  10.9 DEGREES
:DIRQ : |MSR1|= 4.299E-04 |PRATT|= 4.318E-04 ANGLE=   9.3 DEGREES
:DIRT : |MSR1|= 4.607E-04 |PRATT|= 4.677E-04 ANGLE=   9.6 DEGREES
:MIX  :   MSE1   REGULARIZATION:  7.90E-04 GREED: 1.00000  Newton 1.00  0.9850                
     
       CHARGES OF MIXED CHARGE DENSITY
:CTO   : INTERSTITIAL CHARGE  =    15.173898
:CPC   : INTERSTITIAL CHARGE  =    24.576742
:CTO001: CHARGE SPHERE   1    =    10.737688
:CTO002: CHARGE SPHERE   2    =     7.102173

:NEC03: NUCLEAR AND ELECTRONIC CHARGE     90.00000    90.00000000

PW CHANGE     H    K    L             Current                    Change               Residue
:PTO001:      0    0    0  5.23686918E-02 0.00000000E+00  1.449E-07  0.000E+00  2.140E-07  0.000E+00
:PTO002:      0    0   -1  1.75764562E-11 0.00000000E+00 -4.142E-14  0.000E+00 -4.218E-14  0.000E+00
:PTO003:     -1    0    0 -3.74940176E-02 0.00000000E+00 -1.553E-06  0.000E+00 -1.921E-06  0.000E+00
:PTO004:     -1    0   -1  4.34124564E-02-7.51925784E-02 -1.661E-08  2.877E-08  2.591E-08 -4.487E-08
:PTO005:     -1    0    1  2.59312169E-02 4.49141840E-02  2.685E-07  4.650E-07  3.793E-07  6.569E-07
:PTO006:      0    0   -2  2.50311746E-11 0.00000000E+00 -1.498E-14  0.000E+00 -1.619E-14  0.000E+00
:PTO007:     -2    1    0 -1.53438679E-02-2.40011902E-02  2.046E-07 -3.543E-07  3.316E-07 -2.581E-07
:PTO008:     -1   -1    0 -1.53438679E-02 2.40011902E-02  2.046E-07  3.543E-07  3.316E-07  2.581E-07
:PTO009:     -1    0   -2  3.84503509E-02 6.65979645E-02 -9.659E-08 -1.673E-07 -2.437E-07 -4.220E-07
:PTO010:     -1    0    2  1.62887159E-03-2.82128850E-03  7.423E-09 -1.286E-08  4.769E-08 -8.260E-08
:PTO011:     -2    1   -1 -4.74811241E-02-2.59881010E-02  1.284E-07  1.061E-06  2.302E-07  1.204E-06
:PTO012:     -1   -1   -1  4.62469172E-02 2.81258101E-02 -9.831E-07  4.194E-07 -1.157E-06  4.025E-07

:ENE  : ********** TOTAL ENERGY IN Ry =        -2644.24427702

:FOR001:   1.ATOM          2.642          0.000          0.000          2.642 partial forces
:FOR002:   2.ATOM        136.867       -105.971        -54.824        -67.059 partial forces
       TOTAL FORCE WITH RESPECT TO THE GLOBAL COORDINATE SYSTEM:
:FGL001:   1.ATOM                 2.641522293     2.641522293     0.000000000 partial forces
:FGL002:   2.ATOM              -122.365114597  -116.006477079   -67.059319109 partial forces
