
:LABEL1: Calculations in /home/cmueller/wien/FZU/src/quartz/1000k_lda
:LABEL2: on cv036 at Wed Jun 12 03:24:55 PM CEST 2024
:LABEL3: using WIEN2k_19.1 (Release 25/6/2019) in /home/cmueller/WIENROOT
:LABEL4: using the command: run_lapw
 Flat Integration
 New Mode for Coulomb Integral
 Consistent 3/8+Simpson combinations
 Extension of core to zero
 LDM version in phi
 Fifth-order quadrature in outwin


            ---------
:ITE001:  1. ITERATION
            ---------

:NATO :    2 INDEPENDENT AND    9 TOTAL ATOMS IN UNITCELL
       SUBSTANCE: SiO2 for tests                                              

       LATTICE                      = H   
:POT  : POTENTIAL OPTION EX_LDA EC_LDA VX_LDA VC_LDA
:LAT  : LATTICE CONSTANTS=  9.26193  9.26193 10.21737
:VOL  : UNIT CELL VOLUME =     759.05354
       MODE OF CALCULATION IS       = RELA
       NON-SPINPOLARIZED CALCULATION
:IFFT  : FFT-parameters:   72   72   80 Factor: 2.00


   CONVERGENCE PARAMETER FOR PSEUDOCHARGE: NCON=  9
   MAXIMAL VALUE OF RMT(JATOM)*ABSK(NKK) : RK  =19.43469


:VKCOUL :  VK-COUL convergence: 0.439E-05
       ATOMNUMBER=  1 Si         VCOUL-ZERO = -0.14290E+01
:EFG001:                        EFG         =     0.02023   *10**21  V / m**2
                               V20  TOT/SRF=    -0.01356    -0.01572
                               V22  TOT/SRF=     0.00025     0.00384
                               V22M TOT/SRF=    -0.01240    -0.02050
                               V21  TOT/SRF=     0.00000     0.00000
                               V21M TOT/SRF=     0.00000     0.00000

              0.00808   -0.01240    0.00000        0.02023    0.00000    0.00000
             -0.01240    0.00758    0.00000        0.00000   -0.00457    0.00000
              0.00000    0.00000   -0.01566        0.00000    0.00000   -0.01566

         MAIN DIRECTIONS OF THE EFG   1.0000  0.9798  0.0000
                                     -0.9798  1.0000  0.0000
                                      0.0000  0.0000  1.0000
:ANG001:  ANGLE WITH OLD X-AXIS =        44.4

:ETA001:                         ASYMM. ETA =     0.54804


       ATOMNUMBER=  2 O          VCOUL-ZERO = -0.82172E-01
:EFG002:                        EFG         =     2.33858   *10**21  V / m**2
                               V20  TOT/SRF=     0.01778     0.02246
                               V22  TOT/SRF=     0.46575     0.57952
                               V22M TOT/SRF=    -1.03033    -1.28295
                               V21  TOT/SRF=    -1.26988    -1.58068
                               V21M TOT/SRF=     1.11904     1.39344

              0.45548   -1.03033   -1.26988        2.33858    0.00000    0.00000
             -1.03033   -0.47601    1.11904        0.00000   -0.96447    0.00000
             -1.26988    1.11904    0.02053        0.00000    0.00000   -1.37411

         MAIN DIRECTIONS OF THE EFG   1.0000  1.0000  0.0169
                                     -0.7226  0.5267  1.0000
                                     -0.8966  0.6908 -0.7870
:ANG002:  ANGLE WITH OLD X-AXIS =        45.0

:ETA002:                         ASYMM. ETA =     0.17516


     HELLMANN-FEYNMAN-FORCE IN mRy/a.u. = |F|  Fx       Fy             Fz
:FHF001:   1.ATOM      0.466282558745      0.000000000000      0.000000000000     -0.466282558745

     HELLMANN-FEYNMAN-FORCE IN mRy/a.u. = |F|  Fx       Fy             Fz
:FHF002:   2.ATOM   1087.295304239277   -839.694959389513   -430.217099784406   -540.404201362018

:FIT001: LUSE= 13 SIGMA OF V-XC FIT FOR ATOM  1  0.1154616E-02
:FIT001: LUSE= 13 SIGMA OF V-XC FIT FOR ATOM  1  0.1154616E-02
:FIT002: LUSE= 13 SIGMA OF V-XC FIT FOR ATOM  2  0.1957582E-03
:FIT002: LUSE= 13 SIGMA OF V-XC FIT FOR ATOM  2  0.1957582E-03
:DEN  : DENSITY INTEGRAL  =         -1208.78223897   (Ry)
       ELS_POTENTIAL_AT Z=0 and Z=0.5:   0.04804  -0.09790
       ELS_POTENTIAL_AT Y=0 and Y=0.5:   0.00000   0.00000
:VZERO:v0,v0c,v0x  -0.70120   0.04804  -0.74924 v5,v5c,v5x  -0.81425  -0.09790  -0.71634
:VZERY:v0,v0c,v0x  -0.73102   0.00000  -0.73102 v5,v5c,v5x  -0.73102   0.00000  -0.73102
:VZERX:v0,v0c,v0x  -0.22519   0.24423  -0.46942 v5,v5c,v5x  -2.61562  -1.66077  -0.95485
:LMAX-WF:   10   Non-Spherical LMAX:   4

          ATOMIC SPHERE DEPENDENT PARAMETERS FOR ATOM  Si        
:e__0001: OVERALL ENERGY PARAMETER IS    0.3000
          OVERALL BASIS SET ON ATOM IS LAPW
:E0_0001: E( 0)=    0.3000
             APW+lo
:E1_0001: E( 1)=    0.3000
             APW+lo

          ATOMIC SPHERE DEPENDENT PARAMETERS FOR ATOM  O         
:e__0002: OVERALL ENERGY PARAMETER IS    0.3000
          OVERALL BASIS SET ON ATOM IS LAPW
:E0_0002: E( 0)=    0.7000
             APW+lo
:E0_0002: E( 0)=   -1.2959   E(BOTTOM)=   -2.589   E(TOP)=   -0.003  1  2   226
             LOCAL ORBITAL
:E1_0002: E( 1)=    0.3000
             APW+lo

       K=   0.00000   0.00000   0.00000            1
:RKM  : MATRIX SIZE  1625LOs:  42  RKM= 6.97  WEIGHT= 1.00  PGR:    
       EIGENVALUES ARE:
:EIG00001:      -1.5303583   -1.4348960   -1.4348960   -1.3955954   -1.3941644
:EIG00006:      -1.3941644   -0.6922488   -0.6922488   -0.5165701   -0.5113514
:EIG00011:      -0.4996381   -0.4996381   -0.3244073   -0.3244073   -0.3123892
:EIG00016:      -0.2947692   -0.2483626   -0.2483626   -0.2458054   -0.2130538
:EIG00021:      -0.2130538   -0.1949786   -0.1713090   -0.1713090    0.4301799
:EIG00026:       0.6982491    0.6982491    0.7147524    0.7147524    0.8196346
:EIG00031:       0.8248466    0.8853378    0.9045891    0.9045892    0.9280264
:EIG00036:       0.9280264    1.0054988    1.0872999    1.1005509    1.1005509
:EIG00041:       1.1180812    1.1180812    1.2305091    1.2305091    1.3260965
:EIG00046:       1.3711628    1.3711628    1.4836277    1.4836277    1.5647831
 
:EIG00051:       1.5764814    1.5764814    1.6446212    1.7707713    1.7707713
:EIG00056:       1.7760143    1.8598255    1.8657245    1.8657245    1.8969464
:EIG00061:       1.9632960    1.9632960
       ********************************************************

:KPT   :      NUMBER OF K-POINTS:    94
       Insulator, EF-inconsistency corrected
:GAP (global)   :  0.586844 Ry =     7.984 eV (accurate value if proper k-mesh)
         Bandranges (emin - emax) and occupancy:
:BAN00014:  14   -0.337073   -0.308114  2.00000000
:BAN00015:  15   -0.316563   -0.297605  2.00000000
:BAN00016:  16   -0.298622   -0.272567  2.00000000
:BAN00017:  17   -0.281744   -0.248363  2.00000000
:BAN00018:  18   -0.265690   -0.243075  2.00000000
:BAN00019:  19   -0.263456   -0.214558  2.00000000
:BAN00020:  20   -0.243963   -0.212049  2.00000000
:BAN00021:  21   -0.225864   -0.204926  2.00000000
:BAN00022:  22   -0.205593   -0.168427  2.00000000
:BAN00023:  23   -0.192188   -0.162403  2.00000000
:BAN00024:  24   -0.183637   -0.156664  2.00000000
:BAN00025:  25    0.430180    0.638185  0.00000000
:BAN00026:  26    0.552369    0.698249  0.00000000
:BAN00027:  27    0.667057    0.720979  0.00000000
:BAN00028:  28    0.706264    0.759675  0.00000000
:BAN00029:  29    0.714752    0.773987  0.00000000
        Energy to separate low and high energystates:   -0.80904


:NOE  : NUMBER OF ELECTRONS          =   48.000

:FER  : F E R M I - ENERGY(TETRAH.M.)=  -0.1566637198
:GMA  : POTENTIAL AND CHARGE CUT-OFF  12.00 Ry**.5

:POS001: ATOM   -1 X,Y,Z = 0.46913 0.46913 0.50000  MULT= 3  ZZ= 14.000  Si        

       LMMAX 25
       LM=   0 0  1 0  2 0  2 2 -2 2  3 0  3 2 -3 2  4 0  4 2 -4 2  4 4 -4 4  5 0  5 2 -5 2  5 4
        -5 4  6 0  6 2 -6 2  6 4 -6 4  6 6 -6 6

:CHA001: TOTAL VALENCE CHARGE INSIDE SPHERE   1 =   0.4793    (RMT=  1.4000 )
:PCS001: PARTIAL CHARGES SPHERE =  1 S,P,D,F,PX,PY,PZ,D-Z2,D-X2Y2,D-XY,D-XZ,D-YZ 
:QTL001: 0.1659 0.2146 0.0890 0.0082 0.0722 0.0726 0.0698 0.0098 0.0137 0.0199 0.0231 0.0225
        Q-s-low E-s-low   Q-p-low E-p-low   Q-d-low E-d-low   Q-f-low E-f-low
:EPL001:  0.0450 -1.4792    0.0420 -1.4118    0.0137 -1.4118    0.0017 -1.4510
        Q-s-hi  E-s-hi    Q-p-hi  E-p-hi    Q-d-hi  E-d-hi    Q-f-hi  E-f-hi 
:EPH001:  0.1209 -0.6335    0.1727 -0.4889    0.0754 -0.3612    0.0065 -0.3457

                      QXX         QXY         QYY         QZZ       UP TO R
:VZZ001:            -0.22719     0.19887    -0.35188     0.57908       1.400

:POS002: ATOM   -2 X,Y,Z = 0.14451 0.41337 0.61807  MULT= 6  ZZ=  8.000  O         

       LMMAX 49

:CHA002: TOTAL VALENCE CHARGE INSIDE SPHERE   2 =   5.8730    (RMT=  1.6200 )
:PCS002: PARTIAL CHARGES SPHERE =  2 S,P,D,F,PX,PY,PZ,D-Z2,D-X2Y2,D-XY,D-XZ,D-YZ 
:QTL002: 1.6219 4.2349 0.0120 0.0038 1.4029 1.4216 1.4105 0.0019 0.0027 0.0021 0.0026 0.0027
        Q-s-low E-s-low   Q-p-low E-p-low   Q-d-low E-d-low   Q-f-low E-f-low
:EPL002:  1.5648 -1.4300    0.0194 -1.4394    0.0037 -1.4389    0.0003 -1.4327
        Q-s-hi  E-s-hi    Q-p-hi  E-p-hi    Q-d-hi  E-d-hi    Q-f-hi  E-f-hi 
:EPH002:  0.0571 -0.4093    4.2155 -0.3422    0.0083 -0.4279    0.0034 -0.4084

                      QXX         QXY         QYY         QZZ       UP TO R
:VZZ002:             1.24538    -2.78363    -1.37372     0.12835       1.620

:CHA  : TOTAL VALENCE CHARGE INSIDE UNIT CELL =      48.000000

:SUM  : SUM OF EIGENVALUES =         -29.944546460


        1.ATOM      Si                    4 CORE STATES
       CORE-FORCE in mRy/a.u. = |F|      Fx             Fy             Fz
:FCO001:   1.ATOM      2.122228727413      0.000000000000      0.000000000000     -2.122228727413

:1S 001: 1S                -129.973175491 Ry
:2S 001: 2S                  -9.486161277 Ry
:2PP001: 2P*                 -6.346873245 Ry
:2P 001: 2P                  -6.299570256 Ry

        2.ATOM      O                     1 CORE STATES
       CORE-FORCE in mRy/a.u. = |F|      Fx             Fy             Fz
:FCO002:   2.ATOM    279.444504656104    215.795354968335    110.582049234933    138.899986837969

:1S 002: 1S                 -37.043226170 Ry
:CINT001 Core Integral Atom   1    9.919809
:CINT002 Core Integral Atom   2    2.003935

       DENSITY AT NUCLEUS
        JATOM        VALENCE       SEMI-CORE          CORE           TOTAL
:RTO001:   1        4.997579     1868.197752        0.000000     1873.195331
:RTO002:   2       15.564207      299.284908        0.000000      314.849115
     
       CHARGES OF NEW CHARGE DENSITY
:NTO   : INTERSTITIAL CHARGE =    11.541577
:NPC   : PW Pseudocharge     =    26.921337
:NTO001: CHARGE SPHERE  1    =    10.399150
:NTO002: CHARGE SPHERE  2    =     7.876931

:NEC01: NUCLEAR AND ELECTRONIC CHARGE     90.00000    90.00061
     
       CHARGES OF OLD CHARGE DENSITY
:OTO   : INTERSTITIAL CHARGE =    15.747965
:OPC   : PW Pseudocharge     =    23.750783
:OTO001: CHARGE SPHERE  1    =    10.622443
:OTO002: CHARGE SPHERE  2    =     7.064453

:NEC02: NUCLEAR AND ELECTRONIC CHARGE     90.00000    90.00201
     
       CONVERGENCE TEST
:DTO001: DIFFERENCE IN SPHERE  1 =  0.3277898
:DTO002: DIFFERENCE IN SPHERE  2 =  0.9484310

:DIS  :  CHARGE DISTANCE       ( 0.9484310 for atom    2 spin 1)      0.7415506
 PW Mixed is         2149
 
******************************************************
* MULTISECANT MIXING VER9 RELEASE 10.4.0              *
* Standard Mode with controls                        *
* Fixed density scale                                *
* Regularization       1.000E-04                     *
* Trust Upper Limit    5.000E+00                     *
* Max Number of Memory Steps    8                    *
******************************************************
 
:PWTMP   6.1772E+02  5.7600E+02  7.5905E+02
:PLANE:  PW TOTAL      7.1637 DISTAN   2.31E+00  3.23E+01 %
:CHARG:  CLM/ATOM     80.5068 DISTAN   1.22E+00  1.51E+00 %
 
Step History
        DMIX         DMIXT        Red     Pred      Trust     Lambda    MagRel    MagAbs     Beta
  1   3.5000E-02   3.5000E-02 -1.00E+00  1.00E+00 -1.00E+01  1.00E+00  3.50E-02  3.50E-02  1.00E+00
:INFO :  Note, Pratt in use
:TRUST:  Step 5.25E-02  Charge 7.50E-02 (e) CTO  2.69E-01 (e) PW  3.77E-01 (e)
:DIRM :  MEMORY  0/ 8 SCALE   1.000
Performing Pseudo Compensation
Final Pseudo Compensation Rescaling     9.99797E-01
:MIX  :   PRATT  REGULARIZATION:  1.00E-04 GREED: 0.03500                  
     
       CHARGES OF MIXED CHARGE DENSITY
:CTO   : INTERSTITIAL CHARGE =    15.598779
:CPC   : PW Pseudocharge     =    25.834834
:CTO001: CHARGE SPHERE  1    =    10.614628
:CTO002: CHARGE SPHERE  2    =     7.092889

:NEC03: NUCLEAR AND ELECTRONIC CHARGE     90.00000    90.00000

PW CHANGE     H    K    L             Current                    Change               Residue
:PTO001:      0    0    0  5.45858907E-02 0.00000000E+00  2.556E-03  0.000E+00 -1.361E-03  0.000E+00
:PTO002:      0    0   -1 -7.94325277E-10-8.58545631E-20  2.692E-11 -8.585E-20  7.690E-10  0.000E+00
:PTO003:     -1    0    0 -3.93106489E-02 0.00000000E+00 -2.513E-04  0.000E+00  2.152E-03  0.000E+00
:PTO004:     -1    0   -1  4.41560860E-02-7.64805823E-02  1.220E-03 -2.114E-03  1.096E-03 -1.899E-03
:PTO005:     -1    0    1  2.66591026E-02 4.61749192E-02  2.126E-04  3.682E-04 -2.005E-04 -3.472E-04
:PTO006:      0    0   -2 -3.70821155E-10 1.54252669E-19 -3.249E-11  1.543E-19  2.548E-10  0.000E+00
:PTO007:     -2    1    0 -1.55988241E-02-2.15729039E-02 -8.974E-04 -4.787E-03 -1.538E-03 -8.069E-03
:PTO008:     -1   -1    0 -1.55988241E-02 2.15729039E-02 -8.974E-04  4.787E-03 -1.538E-03  8.069E-03
:PTO009:     -1    0   -2  3.43985617E-02 5.95800589E-02  8.441E-03  1.462E-02  1.400E-02  2.425E-02
:PTO010:     -1    0    2 -5.32258422E-04 9.21897740E-04  3.350E-03 -5.802E-03  4.978E-03 -8.621E-03
:PTO011:     -2    1   -1 -4.23459579E-02-2.17094001E-02 -9.823E-03 -8.899E-03 -1.693E-02 -1.372E-02
:PTO012:     -1   -1   -1  3.99738703E-02 2.58179758E-02  1.262E-02  4.057E-03  2.035E-02  7.803E-03

:ENE  : ********** TOTAL ENERGY IN Ry =        -2633.67760262

       TOTAL FORCE IN mRy/a.u. = |F|     Fx             Fy             Fz     with/without FOR in case.in2
:FOR001:   1.ATOM          2.589          0.000          0.000         -2.589 partial forces
:FOR002:   2.ATOM        807.851       -623.900       -319.635       -401.504 partial forces
       TOTAL FORCE WITH RESPECT TO GLOBAL CARTESIAN COORDINATES:
:FCA001:   1.ATOM                        -2.242         -1.294          0.000 partial forces
:FCA002:   2.ATOM                      -623.900       -319.635       -401.504 partial forces
       TOTAL FORCE WITH RESPECT TO THE GLOBAL COORDINATE SYSTEM:
:FGL001:   1.ATOM                -2.588511286    -2.588511286     0.000000000 partial forces
:FGL002:   2.ATOM              -720.417209120  -679.843655109  -401.504214524 partial forces
 Flat Integration
 New Mode for Coulomb Integral
 Consistent 3/8+Simpson combinations
 Extension of core to zero
 LDM version in phi
 Fifth-order quadrature in outwin


            ---------
:ITE002:  2. ITERATION
            ---------

:NATO :    2 INDEPENDENT AND    9 TOTAL ATOMS IN UNITCELL
       SUBSTANCE: SiO2 for tests                                              

       LATTICE                      = H   
:POT  : POTENTIAL OPTION EX_LDA EC_LDA VX_LDA VC_LDA
:LAT  : LATTICE CONSTANTS=  9.26193  9.26193 10.21737
:VOL  : UNIT CELL VOLUME =     759.05354
       MODE OF CALCULATION IS       = RELA
       NON-SPINPOLARIZED CALCULATION
:IFFT  : FFT-parameters:   72   72   80 Factor: 2.00


   CONVERGENCE PARAMETER FOR PSEUDOCHARGE: NCON=  9
   MAXIMAL VALUE OF RMT(JATOM)*ABSK(NKK) : RK  =19.43469


:VKCOUL :  VK-COUL convergence: 0.350E-05
       ATOMNUMBER=  1 Si         VCOUL-ZERO = -0.14271E+01
:EFG001:                        EFG         =    -0.00759   *10**21  V / m**2
                               V20  TOT/SRF=     0.00371    -0.01554
                               V22  TOT/SRF=     0.00163     0.00291
                               V22M TOT/SRF=    -0.00520    -0.01971
                               V21  TOT/SRF=     0.00000     0.00000
                               V21M TOT/SRF=     0.00000     0.00000

             -0.00051   -0.00520    0.00000        0.00331    0.00000    0.00000
             -0.00520   -0.00377    0.00000        0.00000   -0.00759    0.00000
              0.00000    0.00000    0.00428        0.00000    0.00000    0.00428

         MAIN DIRECTIONS OF THE EFG   1.0000  0.7345  0.0000
                                     -0.7345  1.0000  0.0000
                                      0.0000  0.0000  1.0000
:ANG001:  ANGLE WITH OLD X-AXIS =        36.3

:ETA001:                         ASYMM. ETA =     0.12747


       ATOMNUMBER=  2 O          VCOUL-ZERO = -0.69614E-01
:EFG002:                        EFG         =     2.60160   *10**21  V / m**2
                               V20  TOT/SRF=     0.02217     0.02272
                               V22  TOT/SRF=     0.51894     0.58073
                               V22M TOT/SRF=    -1.14305    -1.28459
                               V21  TOT/SRF=    -1.41220    -1.58250
                               V21M TOT/SRF=     1.24873     1.39474

              0.50614   -1.14305   -1.41220        2.60160    0.00000    0.00000
             -1.14305   -0.53174    1.24873        0.00000   -1.06898    0.00000
             -1.41220    1.24873    0.02560        0.00000    0.00000   -1.53262

         MAIN DIRECTIONS OF THE EFG   1.0000  1.0000  0.0149
                                     -0.7229  0.5275  1.0000
                                     -0.8987  0.6884 -0.7879
:ANG002:  ANGLE WITH OLD X-AXIS =        45.0

:ETA002:                         ASYMM. ETA =     0.17821


     HELLMANN-FEYNMAN-FORCE IN mRy/a.u. = |F|  Fx       Fy             Fz
:FHF001:   1.ATOM      2.345546157545      0.000000000000      0.000000000000     -2.345546157545

     HELLMANN-FEYNMAN-FORCE IN mRy/a.u. = |F|  Fx       Fy             Fz
:FHF002:   2.ATOM   1069.858484272421   -825.639816957718   -425.342075091625   -531.036899076192

:FIT001: LUSE= 13 SIGMA OF V-XC FIT FOR ATOM  1  0.1247545E-02
:FIT001: LUSE= 13 SIGMA OF V-XC FIT FOR ATOM  1  0.1247545E-02
:FIT002: LUSE= 13 SIGMA OF V-XC FIT FOR ATOM  2  0.2052886E-03
:FIT002: LUSE= 13 SIGMA OF V-XC FIT FOR ATOM  2  0.2052886E-03
:DEN  : DENSITY INTEGRAL  =         -1210.20992093   (Ry)
       ELS_POTENTIAL_AT Z=0 and Z=0.5:   0.04342  -0.08769
       ELS_POTENTIAL_AT Y=0 and Y=0.5:   0.00000   0.00000
:VZERO:v0,v0c,v0x  -0.71493   0.04342  -0.75834 v5,v5c,v5x  -0.79358  -0.08769  -0.70589
:VZERY:v0,v0c,v0x  -0.73212   0.00000  -0.73212 v5,v5c,v5x  -0.73212   0.00000  -0.73212
:VZERX:v0,v0c,v0x  -0.17108   0.27133  -0.44241 v5,v5c,v5x  -2.56159  -1.63616  -0.92544
:LMAX-WF:   10   Non-Spherical LMAX:   4

          ATOMIC SPHERE DEPENDENT PARAMETERS FOR ATOM  Si        
:e__0001: OVERALL ENERGY PARAMETER IS    0.1000
          OVERALL BASIS SET ON ATOM IS LAPW
:E0_0001: E( 0)=    0.1000
             APW+lo
:E1_0001: E( 1)=    0.1000
             APW+lo

          ATOMIC SPHERE DEPENDENT PARAMETERS FOR ATOM  O         
:e__0002: OVERALL ENERGY PARAMETER IS    0.1000
          OVERALL BASIS SET ON ATOM IS LAPW
:E0_0002: E( 0)=    0.5000
             APW+lo
:E0_0002: E( 0)=   -1.2677   E(BOTTOM)=   -2.565   E(TOP)=    0.030  1  2   233
             LOCAL ORBITAL
:E1_0002: E( 1)=    0.1000
             APW+lo

       K=   0.00000   0.00000   0.00000            1
:RKM  : MATRIX SIZE  1625LOs:  42  RKM= 6.97  WEIGHT= 1.00  PGR:    
       EIGENVALUES ARE:
:EIG00001:      -1.5089281   -1.4116659   -1.4116659   -1.3714681   -1.3699204
:EIG00006:      -1.3699204   -0.6741154   -0.6741154   -0.4951062   -0.4905015
:EIG00011:      -0.4784555   -0.4784555   -0.3036634   -0.3036634   -0.2909982
:EIG00016:      -0.2731344   -0.2248731   -0.2248731   -0.2224630   -0.1892409
:EIG00021:      -0.1892409   -0.1707549   -0.1466623   -0.1466623    0.4405726
:EIG00026:       0.7061465    0.7061465    0.7238506    0.7238506    0.8319272
:EIG00031:       0.8321240    0.8953826    0.9167477    0.9167477    0.9414885
:EIG00036:       0.9414885    1.0173986    1.0972264    1.1094112    1.1094112
:EIG00041:       1.1255191    1.1255191    1.2390007    1.2390007    1.3341855
:EIG00046:       1.3799398    1.3799398    1.4913209    1.4913209    1.5704858
 
:EIG00051:       1.5838240    1.5838240    1.6522100    1.7775939    1.7775939
:EIG00056:       1.7834364
       ********************************************************

:KPT   :      NUMBER OF K-POINTS:    94
       Insulator, EF-inconsistency corrected
:GAP (global)   :  0.571923 Ry =     7.781 eV (accurate value if proper k-mesh)
         Bandranges (emin - emax) and occupancy:
:BAN00014:  14   -0.316869   -0.286721  2.00000000
:BAN00015:  15   -0.295973   -0.275760  2.00000000
:BAN00016:  16   -0.276873   -0.250076  2.00000000
:BAN00017:  17   -0.259469   -0.224873  2.00000000
:BAN00018:  18   -0.243130   -0.219955  2.00000000
:BAN00019:  19   -0.240874   -0.190651  2.00000000
:BAN00020:  20   -0.220929   -0.188221  2.00000000
:BAN00021:  21   -0.202331   -0.180935  2.00000000
:BAN00022:  22   -0.181539   -0.143449  2.00000000
:BAN00023:  23   -0.167905   -0.137288  2.00000000
:BAN00024:  24   -0.159229   -0.131350  2.00000000
:BAN00025:  25    0.440573    0.650022  0.00000000
:BAN00026:  26    0.564468    0.706147  0.00000000
:BAN00027:  27    0.678667    0.729530  0.00000000
:BAN00028:  28    0.713493    0.769133  0.00000000
:BAN00029:  29    0.723851    0.783389  0.00000000
        Energy to separate low and high energystates:   -0.79229


:NOE  : NUMBER OF ELECTRONS          =   48.000

:FER  : F E R M I - ENERGY(TETRAH.M.)=  -0.1313499729
:GMA  : POTENTIAL AND CHARGE CUT-OFF  12.00 Ry**.5

:POS001: ATOM   -1 X,Y,Z = 0.46913 0.46913 0.50000  MULT= 3  ZZ= 14.000  Si        

       LMMAX 25
       LM=   0 0  1 0  2 0  2 2 -2 2  3 0  3 2 -3 2  4 0  4 2 -4 2  4 4 -4 4  5 0  5 2 -5 2  5 4
        -5 4  6 0  6 2 -6 2  6 4 -6 4  6 6 -6 6

:CHA001: TOTAL VALENCE CHARGE INSIDE SPHERE   1 =   0.4893    (RMT=  1.4000 )
:PCS001: PARTIAL CHARGES SPHERE =  1 S,P,D,F,PX,PY,PZ,D-Z2,D-X2Y2,D-XY,D-XZ,D-YZ 
:QTL001: 0.1693 0.2195 0.0907 0.0082 0.0738 0.0743 0.0714 0.0101 0.0140 0.0202 0.0235 0.0228
        Q-s-low E-s-low   Q-p-low E-p-low   Q-d-low E-d-low   Q-f-low E-f-low
:EPL001:  0.0462 -1.4567    0.0428 -1.3879    0.0138 -1.3879    0.0017 -1.4280
        Q-s-hi  E-s-hi    Q-p-hi  E-p-hi    Q-d-hi  E-d-hi    Q-f-hi  E-f-hi 
:EPH001:  0.1231 -0.6142    0.1767 -0.4675    0.0769 -0.3370    0.0065 -0.3205

                      QXX         QXY         QYY         QZZ       UP TO R
:VZZ001:            -0.22969     0.20027    -0.37038     0.60006       1.400

:POS002: ATOM   -2 X,Y,Z = 0.14451 0.41337 0.61807  MULT= 6  ZZ=  8.000  O         

       LMMAX 49

:CHA002: TOTAL VALENCE CHARGE INSIDE SPHERE   2 =   5.8347    (RMT=  1.6200 )
:PCS002: PARTIAL CHARGES SPHERE =  2 S,P,D,F,PX,PY,PZ,D-Z2,D-X2Y2,D-XY,D-XZ,D-YZ 
:QTL002: 1.6176 4.2006 0.0123 0.0038 1.3916 1.4099 1.3991 0.0019 0.0028 0.0022 0.0027 0.0028
        Q-s-low E-s-low   Q-p-low E-p-low   Q-d-low E-d-low   Q-f-low E-f-low
:EPL002:  1.5586 -1.4066    0.0197 -1.4162    0.0037 -1.4158    0.0003 -1.4093
        Q-s-hi  E-s-hi    Q-p-hi  E-p-hi    Q-d-hi  E-d-hi    Q-f-hi  E-f-hi 
:EPH002:  0.0590 -0.3896    4.1810 -0.3197    0.0085 -0.4050    0.0035 -0.3862

                      QXX         QXY         QYY         QZZ       UP TO R
:VZZ002:             1.19510    -2.66278    -1.32132     0.12622       1.620

:CHA  : TOTAL VALENCE CHARGE INSIDE UNIT CELL =      48.000000

:SUM  : SUM OF EIGENVALUES =         -28.870786580


        1.ATOM      Si                    4 CORE STATES
       CORE-FORCE in mRy/a.u. = |F|      Fx             Fy             Fz
:FCO001:   1.ATOM      0.740354145686      0.000000000000      0.000000000000     -0.740354145686

:1S 001: 1S                -129.980504975 Ry
:2S 001: 2S                  -9.489382829 Ry
:2PP001: 2P*                 -6.350353174 Ry
:2P 001: 2P                  -6.303031082 Ry

        2.ATOM      O                     1 CORE STATES
       CORE-FORCE in mRy/a.u. = |F|      Fx             Fy             Fz
:FCO002:   2.ATOM    282.829348964553    218.191517709199    112.496108102020    140.461837868396

:1S 002: 1S                 -36.993971674 Ry
:CINT001 Core Integral Atom   1    9.920032
:CINT002 Core Integral Atom   2    2.003922

       DENSITY AT NUCLEUS
        JATOM        VALENCE       SEMI-CORE          CORE           TOTAL
:RTO001:   1        5.123512     1868.243657        0.000000     1873.367169
:RTO002:   2       15.461062      299.265643        0.000000      314.726704
     
       CHARGES OF NEW CHARGE DENSITY
:NTO   : INTERSTITIAL CHARGE =    11.740712
:NPC   : PW Pseudocharge     =    26.915018
:NTO001: CHARGE SPHERE  1    =    10.409299
:NTO002: CHARGE SPHERE  2    =     7.838668

:NEC01: NUCLEAR AND ELECTRONIC CHARGE     90.00000    90.00061
     
       CHARGES OF OLD CHARGE DENSITY
:OTO   : INTERSTITIAL CHARGE =    15.598779
:OPC   : PW Pseudocharge     =    25.834834
:OTO001: CHARGE SPHERE  1    =    10.614628
:OTO002: CHARGE SPHERE  2    =     7.092889

:NEC02: NUCLEAR AND ELECTRONIC CHARGE     90.00000    90.00000
     
       CONVERGENCE TEST
:DTO001: DIFFERENCE IN SPHERE  1 =  0.2989735
:DTO002: DIFFERENCE IN SPHERE  2 =  0.8737426

:DIS  :  CHARGE DISTANCE       ( 0.8737426 for atom    2 spin 1)      0.6821529
 PW Mixed is         2149
 
******************************************************
* MULTISECANT MIXING VER9 RELEASE 10.4.0              *
* Standard Mode with controls                        *
* Fixed density scale                                *
* Regularization       1.000E-04                     *
* Trust Upper Limit    5.000E+00                     *
* Max Number of Memory Steps    8                    *
******************************************************
 
:PWTMP   6.1772E+02  5.7600E+02  7.5905E+02
:PLANE:  PW TOTAL      8.1221 DISTAN   9.91E-01  1.22E+01 %
:CHARG:  CLM/ATOM     80.5049 DISTAN   1.12E+00  1.40E+00 %
 
Step History
        DMIX         DMIXT        Red     Pred      Trust     Lambda    MagRel    MagAbs     Beta
  1   3.5000E-02   3.5000E-02 -1.00E+00  1.00E+00 -1.00E+01  1.00E+00  3.50E-02  3.50E-02  1.00E+00
  2   3.5000E-02   3.5000E-02 -1.00E+00  1.00E+00 -1.00E+01  1.00E+00  3.50E-02  1.18E-01  1.00E+00
:JACOBIANS    4.850E-01   2.845E-03
  
:TRUST:  Step 5.93E-02  Charge 7.50E-02 (e) CTO  2.69E-01 (e) PW  3.77E-01 (e)
:DIRM :  MEMORY  1/ 8 SCALE   1.000
:MIX  :   PRATT  REGULARIZATION:  1.00E-04 GREED: 0.05931  Expand 1.69  0.0593                
     
       CHARGES OF MIXED CHARGE DENSITY
:CTO   : INTERSTITIAL CHARGE =    15.538704
:CPC   : PW Pseudocharge     =    26.686756
:CTO001: CHARGE SPHERE  1    =    10.611438
:CTO002: CHARGE SPHERE  2    =     7.104497

:NEC03: NUCLEAR AND ELECTRONIC CHARGE     90.00000    90.00000

PW CHANGE     H    K    L             Current                    Change               Residue
:PTO001:      0    0    0  5.56290936E-02 0.00000000E+00  1.043E-03  0.000E+00 -3.662E-03  0.000E+00
:PTO002:      0    0   -1 -7.83338749E-10 0.00000000E+00  1.099E-11  0.000E+00  7.422E-10  0.000E+00
:PTO003:     -1    0    0 -3.94132311E-02 0.00000000E+00 -1.026E-04  0.000E+00  2.205E-03  0.000E+00
:PTO004:     -1    0   -1  4.46542003E-02-7.73433418E-02  4.981E-04 -8.628E-04 -2.245E-05  3.888E-05
:PTO005:     -1    0    1  2.67458640E-02 4.63251942E-02  8.676E-05  1.503E-04 -3.303E-04 -5.721E-04
:PTO006:      0    0   -2 -3.84083094E-10 0.00000000E+00 -1.326E-11  0.000E+00  2.874E-10  0.000E+00
:PTO007:     -2    1    0 -1.59651279E-02-2.35270588E-02 -3.663E-04 -1.954E-03 -6.111E-04 -3.186E-03
:PTO008:     -1   -1    0 -1.59651279E-02 2.35270588E-02 -3.663E-04  1.954E-03 -6.111E-04  3.186E-03
:PTO009:     -1    0   -2  3.78441856E-02 6.55480554E-02  3.446E-03  5.968E-03  5.384E-03  9.325E-03
:PTO010:     -1    0    2  8.35096890E-04-1.44643031E-03  1.367E-03 -2.368E-03  1.584E-03 -2.744E-03
:PTO011:     -2    1   -1 -4.63555118E-02-2.53419697E-02 -4.010E-03 -3.633E-03 -6.906E-03 -4.653E-03
:PTO012:     -1   -1   -1  4.51245449E-02 2.74740669E-02  5.151E-03  1.656E-03  7.483E-03  3.654E-03

:ENE  : ********** TOTAL ENERGY IN Ry =        -2633.56618645

       TOTAL FORCE IN mRy/a.u. = |F|     Fx             Fy             Fz     with/without FOR in case.in2
:FOR001:   1.ATOM          3.086          0.000          0.000         -3.086 partial forces
:FOR002:   2.ATOM        787.029       -607.448       -312.846       -390.575 partial forces
       TOTAL FORCE WITH RESPECT TO GLOBAL CARTESIAN COORDINATES:
:FCA001:   1.ATOM                        -2.672         -1.543          0.000 partial forces
:FCA002:   2.ATOM                      -607.448       -312.846       -390.575 partial forces
       TOTAL FORCE WITH RESPECT TO THE GLOBAL COORDINATE SYSTEM:
:FGL001:   1.ATOM                -3.085900303    -3.085900303     0.000000000 partial forces
:FGL002:   2.ATOM              -701.420878180  -663.556406080  -390.575061208 partial forces
 Flat Integration
 New Mode for Coulomb Integral
 Consistent 3/8+Simpson combinations
 Extension of core to zero
 LDM version in phi
 Fifth-order quadrature in outwin


            ---------
:ITE003:  3. ITERATION
            ---------

:NATO :    2 INDEPENDENT AND    9 TOTAL ATOMS IN UNITCELL
       SUBSTANCE: SiO2 for tests                                              

       LATTICE                      = H   
:POT  : POTENTIAL OPTION EX_LDA EC_LDA VX_LDA VC_LDA
:LAT  : LATTICE CONSTANTS=  9.26193  9.26193 10.21737
:VOL  : UNIT CELL VOLUME =     759.05354
       MODE OF CALCULATION IS       = RELA
       NON-SPINPOLARIZED CALCULATION
:IFFT  : FFT-parameters:   72   72   80 Factor: 2.00


   CONVERGENCE PARAMETER FOR PSEUDOCHARGE: NCON=  9
   MAXIMAL VALUE OF RMT(JATOM)*ABSK(NKK) : RK  =19.43469


:VKCOUL :  VK-COUL convergence: 0.341E-05
       ATOMNUMBER=  1 Si         VCOUL-ZERO = -0.14264E+01
:EFG001:                        EFG         =     0.01242   *10**21  V / m**2
                               V20  TOT/SRF=     0.01076    -0.01546
                               V22  TOT/SRF=     0.00219     0.00253
                               V22M TOT/SRF=    -0.00226    -0.01939
                               V21  TOT/SRF=     0.00000     0.00000
                               V21M TOT/SRF=     0.00000     0.00000

             -0.00402   -0.00226    0.00000       -0.00306    0.00000    0.00000
             -0.00226   -0.00840    0.00000        0.00000   -0.00936    0.00000
              0.00000    0.00000    0.01242        0.00000    0.00000    0.01242

         MAIN DIRECTIONS OF THE EFG   1.0000  0.4237  0.0000
                                     -0.4237  1.0000  0.0000
                                      0.0000  0.0000  1.0000
:ANG001:  ANGLE WITH OLD X-AXIS =        23.0

:ETA001:                         ASYMM. ETA =     0.50740


       ATOMNUMBER=  2 O          VCOUL-ZERO = -0.64497E-01
:EFG002:                        EFG         =     2.70916   *10**21  V / m**2
                               V20  TOT/SRF=     0.02396     0.02282
                               V22  TOT/SRF=     0.54069     0.58126
                               V22M TOT/SRF=    -1.18914    -1.28534
                               V21  TOT/SRF=    -1.47040    -1.58334
                               V21M TOT/SRF=     1.30177     1.39537

              0.52686   -1.18914   -1.47040        2.70916    0.00000    0.00000
             -1.18914   -0.55452    1.30177        0.00000   -1.11172    0.00000
             -1.47040    1.30177    0.02767        0.00000    0.00000   -1.59744

         MAIN DIRECTIONS OF THE EFG   1.0000  1.0000  0.0142
                                     -0.7231  0.5277  1.0000
                                     -0.8994  0.6876 -0.7882
:ANG002:  ANGLE WITH OLD X-AXIS =        45.0

:ETA002:                         ASYMM. ETA =     0.17929


     HELLMANN-FEYNMAN-FORCE IN mRy/a.u. = |F|  Fx       Fy             Fz
:FHF001:   1.ATOM      3.106091308987      0.000000000000      0.000000000000     -3.106091308987

     HELLMANN-FEYNMAN-FORCE IN mRy/a.u. = |F|  Fx       Fy             Fz
:FHF002:   2.ATOM   1062.851590904629   -819.986765984371   -423.397011821023   -527.266705074408

:FIT001: LUSE= 13 SIGMA OF V-XC FIT FOR ATOM  1  0.1286649E-02
:FIT001: LUSE= 13 SIGMA OF V-XC FIT FOR ATOM  1  0.1286649E-02
:FIT002: LUSE= 13 SIGMA OF V-XC FIT FOR ATOM  2  0.2092065E-03
:FIT002: LUSE= 13 SIGMA OF V-XC FIT FOR ATOM  2  0.2092065E-03
:DEN  : DENSITY INTEGRAL  =         -1210.79094645   (Ry)
       ELS_POTENTIAL_AT Z=0 and Z=0.5:   0.04153  -0.08352
       ELS_POTENTIAL_AT Y=0 and Y=0.5:   0.00000   0.00000
:VZERO:v0,v0c,v0x  -0.72009   0.04153  -0.76162 v5,v5c,v5x  -0.78052  -0.08352  -0.69700
:VZERY:v0,v0c,v0x  -0.73146   0.00000  -0.73146 v5,v5c,v5x  -0.73146   0.00000  -0.73146
:VZERX:v0,v0c,v0x  -0.14016   0.28241  -0.42257 v5,v5c,v5x  -2.52835  -1.62621  -0.90214
:LMAX-WF:   10   Non-Spherical LMAX:   4

          ATOMIC SPHERE DEPENDENT PARAMETERS FOR ATOM  Si        
:e__0001: OVERALL ENERGY PARAMETER IS   -0.1000
          OVERALL BASIS SET ON ATOM IS LAPW
:E0_0001: E( 0)=   -0.1000
             APW+lo
:E1_0001: E( 1)=   -0.1000
             APW+lo

          ATOMIC SPHERE DEPENDENT PARAMETERS FOR ATOM  O         
:e__0002: OVERALL ENERGY PARAMETER IS   -0.1000
          OVERALL BASIS SET ON ATOM IS LAPW
:E0_0002: E( 0)=   -0.1000
             APW+lo
:E0_0002: E( 0)=   -1.2561   E(BOTTOM)=   -2.555   E(TOP)=    0.043  1  2   227
             LOCAL ORBITAL
:E1_0002: E( 1)=   -0.1000
             APW+lo

       K=   0.00000   0.00000   0.00000            1
:RKM  : MATRIX SIZE  1625LOs:  42  RKM= 6.97  WEIGHT= 1.00  PGR:    
       EIGENVALUES ARE:
:EIG00001:      -1.5002213   -1.4022118   -1.4022118   -1.3616330   -1.3600420
:EIG00006:      -1.3600420   -0.6666345   -0.6666345   -0.4862728   -0.4819502
:EIG00011:      -0.4697659   -0.4697659   -0.2952156   -0.2952156   -0.2822774
:EIG00016:      -0.2643255   -0.2152821   -0.2152821   -0.2129272   -0.1795118
:EIG00021:      -0.1795118   -0.1608586   -0.1365883   -0.1365883    0.4448225
:EIG00026:       0.7093617    0.7093617    0.7276583    0.7276583    0.8350958
:EIG00031:       0.8372784    0.8997152    0.9219751    0.9219751    0.9475371
:EIG00036:       0.9475371    1.0226948    1.1016202    1.1132270    1.1132270
:EIG00041:       1.1286144    1.1286144    1.2426101    1.2426101    1.3377422
:EIG00046:       1.3839062    1.3839062    1.4946553    1.4946553    1.5722961
 
:EIG00051:       1.5868127    1.5868127
       ********************************************************

:KPT   :      NUMBER OF K-POINTS:    94
       Insulator, EF-inconsistency corrected
:GAP (global)   :  0.565815 Ry =     7.698 eV (accurate value if proper k-mesh)
         Bandranges (emin - emax) and occupancy:
:BAN00014:  14   -0.308646   -0.278012  2.00000000
:BAN00015:  15   -0.287590   -0.266852  2.00000000
:BAN00016:  16   -0.268003   -0.240905  2.00000000
:BAN00017:  17   -0.250384   -0.215282  2.00000000
:BAN00018:  18   -0.233921   -0.210519  2.00000000
:BAN00019:  19   -0.231653   -0.180886  2.00000000
:BAN00020:  20   -0.211527   -0.178487  2.00000000
:BAN00021:  21   -0.192724   -0.171136  2.00000000
:BAN00022:  22   -0.171709   -0.133234  2.00000000
:BAN00023:  23   -0.157982   -0.127039  2.00000000
:BAN00024:  24   -0.149253   -0.120993  2.00000000
:BAN00025:  25    0.444822    0.654858  0.00000000
:BAN00026:  26    0.569477    0.709362  0.00000000
:BAN00027:  27    0.683528    0.733004  0.00000000
:BAN00028:  28    0.716474    0.773095  0.00000000
:BAN00029:  29    0.727658    0.787352  0.00000000
        Energy to separate low and high energystates:   -0.78538


:NOE  : NUMBER OF ELECTRONS          =   48.000

:FER  : F E R M I - ENERGY(TETRAH.M.)=  -0.1209926919
:GMA  : POTENTIAL AND CHARGE CUT-OFF  12.00 Ry**.5

:POS001: ATOM   -1 X,Y,Z = 0.46913 0.46913 0.50000  MULT= 3  ZZ= 14.000  Si        

       LMMAX 25
       LM=   0 0  1 0  2 0  2 2 -2 2  3 0  3 2 -3 2  4 0  4 2 -4 2  4 4 -4 4  5 0  5 2 -5 2  5 4
        -5 4  6 0  6 2 -6 2  6 4 -6 4  6 6 -6 6

:CHA001: TOTAL VALENCE CHARGE INSIDE SPHERE   1 =   0.4935    (RMT=  1.4000 )
:PCS001: PARTIAL CHARGES SPHERE =  1 S,P,D,F,PX,PY,PZ,D-Z2,D-X2Y2,D-XY,D-XZ,D-YZ 
:QTL001: 0.1707 0.2216 0.0913 0.0082 0.0745 0.0751 0.0720 0.0102 0.0142 0.0204 0.0236 0.0230
        Q-s-low E-s-low   Q-p-low E-p-low   Q-d-low E-d-low   Q-f-low E-f-low
:EPL001:  0.0467 -1.4476    0.0432 -1.3782    0.0138 -1.3781    0.0017 -1.4186
        Q-s-hi  E-s-hi    Q-p-hi  E-p-hi    Q-d-hi  E-d-hi    Q-f-hi  E-f-hi 
:EPH001:  0.1241 -0.6063    0.1784 -0.4588    0.0775 -0.3271    0.0065 -0.3101

                      QXX         QXY         QYY         QZZ       UP TO R
:VZZ001:            -0.23166     0.20200    -0.37609     0.60775       1.400

:POS002: ATOM   -2 X,Y,Z = 0.14451 0.41337 0.61807  MULT= 6  ZZ=  8.000  O         

       LMMAX 49

:CHA002: TOTAL VALENCE CHARGE INSIDE SPHERE   2 =   5.8190    (RMT=  1.6200 )
:PCS002: PARTIAL CHARGES SPHERE =  2 S,P,D,F,PX,PY,PZ,D-Z2,D-X2Y2,D-XY,D-XZ,D-YZ 
:QTL002: 1.6158 4.1865 0.0124 0.0038 1.3870 1.4051 1.3944 0.0020 0.0028 0.0022 0.0027 0.0028
        Q-s-low E-s-low   Q-p-low E-p-low   Q-d-low E-d-low   Q-f-low E-f-low
:EPL002:  1.5560 -1.3970    0.0198 -1.4068    0.0038 -1.4063    0.0003 -1.3998
        Q-s-hi  E-s-hi    Q-p-hi  E-p-hi    Q-d-hi  E-d-hi    Q-f-hi  E-f-hi 
:EPH002:  0.0598 -0.3815    4.1667 -0.3105    0.0086 -0.3956    0.0035 -0.3771

                      QXX         QXY         QYY         QZZ       UP TO R
:VZZ002:             1.15551    -2.56968    -1.27954     0.12403       1.620

:CHA  : TOTAL VALENCE CHARGE INSIDE UNIT CELL =      48.000000

:SUM  : SUM OF EIGENVALUES =         -28.432060554


        1.ATOM      Si                    4 CORE STATES
       CORE-FORCE in mRy/a.u. = |F|      Fx             Fy             Fz
:FCO001:   1.ATOM      0.180860799804      0.000000000000      0.000000000000     -0.180860799804

:1S 001: 1S                -129.983582524 Ry
:2S 001: 2S                  -9.490783546 Ry
:2PP001: 2P*                 -6.351859428 Ry
:2P 001: 2P                  -6.304529538 Ry

        2.ATOM      O                     1 CORE STATES
       CORE-FORCE in mRy/a.u. = |F|      Fx             Fy             Fz
:FCO002:   2.ATOM    284.239596871269    219.191300273808    113.288983000511    141.113176721838

:1S 002: 1S                 -36.973874927 Ry
:CINT001 Core Integral Atom   1    9.920123
:CINT002 Core Integral Atom   2    2.003917

       DENSITY AT NUCLEUS
        JATOM        VALENCE       SEMI-CORE          CORE           TOTAL
:RTO001:   1        5.187148     1868.262399        0.000000     1873.449547
:RTO002:   2       15.417856      299.257785        0.000000      314.675641
     
       CHARGES OF NEW CHARGE DENSITY
:NTO   : INTERSTITIAL CHARGE =    11.822600
:NPC   : PW Pseudocharge     =    26.907351
:NTO001: CHARGE SPHERE  1    =    10.413582
:NTO002: CHARGE SPHERE  2    =     7.822878

:NEC01: NUCLEAR AND ELECTRONIC CHARGE     90.00000    90.00061
     
       CHARGES OF OLD CHARGE DENSITY
:OTO   : INTERSTITIAL CHARGE =    15.538704
:OPC   : PW Pseudocharge     =    26.686756
:OTO001: CHARGE SPHERE  1    =    10.611438
:OTO002: CHARGE SPHERE  2    =     7.104497

:NEC02: NUCLEAR AND ELECTRONIC CHARGE     90.00000    90.00000
     
       CONVERGENCE TEST
:DTO001: DIFFERENCE IN SPHERE  1 =  0.2865429
:DTO002: DIFFERENCE IN SPHERE  2 =  0.8460320

:DIS  :  CHARGE DISTANCE       ( 0.8460320 for atom    2 spin 1)      0.6595356
 PW Mixed is         2149
 
******************************************************
* MULTISECANT MIXING VER9 RELEASE 10.4.0              *
* Standard Mode with controls                        *
* Fixed density scale                                *
* Regularization       1.000E-04                     *
* Trust Upper Limit    5.000E+00                     *
* Max Number of Memory Steps    8                    *
******************************************************
 
:PWTMP   6.1772E+02  5.7600E+02  7.5905E+02
:PLANE:  PW TOTAL      8.5753 DISTAN   9.17E-01  1.07E+01 %
:CHARG:  CLM/ATOM     80.5041 DISTAN   1.09E+00  1.35E+00 %
 
Step History
        DMIX         DMIXT        Red     Pred      Trust     Lambda    MagRel    MagAbs     Beta
  1   3.5000E-02   3.5000E-02 -1.00E+00  1.00E+00 -1.00E+01  1.00E+00  3.50E-02  3.50E-02  1.00E+00
  2   3.5000E-02   3.5000E-02  7.31E-01  1.00E+00 -1.00E+01  1.00E+00  3.50E-02  1.18E-01  1.00E+00
  3   5.9310E-02   5.9310E-02 -1.00E+00  1.00E+00 -1.00E+01  1.00E+00  5.93E-02  1.46E-01  1.00E+00
:JACOBIANS    7.270E-01   4.275E-03
  
:NORMS:  1/Froebius, Min, Max, Used   0.9771E+00  0.4871E+00  0.9771E+00  0.9771E+00
:INFO :  Number of Memory Steps    2 Skipping    0
:INFO :  SLambda=    0.0975881307  Max    0.0975881307
:PREDicted Charge, CTotal, PW Trust    1.211E-02   6.266E-02   6.267E-01
:PREDicted DMix, Beta, BLim   5.8819E-02  9.5683E-01  1.8933E+00

Eigenvalues, unscaled except for SY+YY
   #     SY Real        SY Imag          SS             YY         SY+YY Real      SY+YY Imag
   1   1.949279E+00   0.000000E+00   1.909360E+00   1.999922E+00   2.190148E+00   0.000000E+00
   2   2.475327E-16   0.000000E+00   1.257825E-16   7.821026E-05   7.820625E-05   0.000000E+00
 
:INFO :  Singular value  2.190E+00 Weight  1.000E+00 Projection  1.625E-02
:INFO :  Singular value  7.821E-05 Weight  1.326E-01 Projection -1.433E+01
:RANK :  ACTIVE   1.13/2  =  56.63 % ; YY RANK   1.13/2  =  56.63 %
 
:DLIM :  Beta Active  9.676E-01
:BLIM :  VZERO Control Off
:TRUST:  Step 3.31E-01  Charge 7.50E-02 (e) CTO  2.69E-01 (e) PW  4.14E-01 (e)
:DIRM :  MEMORY  2/8  SCALE   1.000 RED  0.96 PRED  1.00 NEXT  0.98 BETA  0.97
:TRAVE:  Charge 3.80E-02 (e) CTO  1.96E-01 (e) PW  1.48E-01 (e)
:DIRP :  |MSR1|= 5.192E-02 |PRATT|= 9.174E-01 ANGLE=   9.7 DEGREES
:DIRQ :  |MSR1|= 1.121E-01 |PRATT|= 2.176E+00 ANGLE=   3.1 DEGREES
:DIRT :  |MSR1|= 1.235E-01 |PRATT|= 2.361E+00 ANGLE=   5.2 DEGREES
:MIX  :   MSD1   REGULARIZATION:  2.00E-04 GREED: 0.05299  Newton 1.00  0.0523                
     
       CHARGES OF MIXED CHARGE DENSITY
:CTO   : INTERSTITIAL CHARGE =    15.342241
:CPC   : PW Pseudocharge     =    26.688763
:CTO001: CHARGE SPHERE  1    =    10.600920
:CTO002: CHARGE SPHERE  2    =     7.142500

:NEC03: NUCLEAR AND ELECTRONIC CHARGE     90.00000    90.00000

PW CHANGE     H    K    L             Current                    Change               Residue
:PTO001:      0    0    0  5.53729116E-02 0.00000000E+00 -2.562E-04  0.000E+00 -4.608E-03  0.000E+00
:PTO002:      0    0   -1 -7.44750210E-10 0.00000000E+00  3.859E-11  0.000E+00  7.313E-10  0.000E+00
:PTO003:     -1    0    0 -3.92952712E-02 0.00000000E+00  1.180E-04  0.000E+00  2.230E-03  0.000E+00
:PTO004:     -1    0   -1  4.46248493E-02-7.72925044E-02 -2.935E-05  5.084E-05 -4.858E-04  8.414E-04
:PTO005:     -1    0    1  2.67259531E-02 4.62907074E-02 -1.991E-05 -3.449E-05 -3.867E-04 -6.698E-04
:PTO006:      0    0   -2 -3.67956406E-10 0.00000000E+00  1.613E-11  0.000E+00  3.007E-10  0.000E+00
:PTO007:     -2    1    0 -1.59740821E-02-2.35651563E-02 -8.954E-06 -3.810E-05 -2.289E-04 -1.186E-03
:PTO008:     -1   -1    0 -1.59740821E-02 2.35651563E-02 -8.954E-06  3.810E-05 -2.289E-04  1.186E-03
:PTO009:     -1    0   -2  3.78983161E-02 6.56418122E-02  5.413E-05  9.376E-05  1.856E-03  3.214E-03
:PTO010:     -1    0    2  8.26095315E-04-1.43083913E-03 -9.002E-06  1.559E-05  1.982E-04 -3.432E-04
:PTO011:     -2    1   -1 -4.64524142E-02-2.53435521E-02 -9.690E-05 -1.582E-06 -2.801E-03 -9.432E-04
:PTO012:     -1   -1   -1  4.51743665E-02 2.75571957E-02  4.982E-05  8.313E-05  2.217E-03  1.954E-03

:ENE  : ********** TOTAL ENERGY IN Ry =        -2633.52121357

       TOTAL FORCE IN mRy/a.u. = |F|     Fx             Fy             Fz     with/without FOR in case.in2
:FOR001:   1.ATOM          3.287          0.000          0.000         -3.287 partial forces
:FOR002:   2.ATOM        778.612       -600.795       -310.108       -386.154 partial forces
       TOTAL FORCE WITH RESPECT TO GLOBAL CARTESIAN COORDINATES:
:FCA001:   1.ATOM                        -2.847         -1.643          0.000 partial forces
:FCA002:   2.ATOM                      -600.795       -310.108       -386.154 partial forces
       TOTAL FORCE WITH RESPECT TO THE GLOBAL COORDINATE SYSTEM:
:FGL001:   1.ATOM                -3.286952109    -3.286952109     0.000000000 partial forces
:FGL002:   2.ATOM              -693.738847712  -656.977452676  -386.153528353 partial forces
 Flat Integration
 New Mode for Coulomb Integral
 Consistent 3/8+Simpson combinations
 Extension of core to zero
 LDM version in phi
 Fifth-order quadrature in outwin


            ---------
:ITE004:  4. ITERATION
            ---------

:NATO :    2 INDEPENDENT AND    9 TOTAL ATOMS IN UNITCELL
       SUBSTANCE: SiO2 for tests                                              

       LATTICE                      = H   
:POT  : POTENTIAL OPTION EX_LDA EC_LDA VX_LDA VC_LDA
:LAT  : LATTICE CONSTANTS=  9.26193  9.26193 10.21737
:VOL  : UNIT CELL VOLUME =     759.05354
       MODE OF CALCULATION IS       = RELA
       NON-SPINPOLARIZED CALCULATION
:IFFT  : FFT-parameters:   72   72   80 Factor: 2.00


   CONVERGENCE PARAMETER FOR PSEUDOCHARGE: NCON=  9
   MAXIMAL VALUE OF RMT(JATOM)*ABSK(NKK) : RK  =19.43469


:VKCOUL :  VK-COUL convergence: 0.342E-05
       ATOMNUMBER=  1 Si         VCOUL-ZERO = -0.14313E+01
:EFG001:                        EFG         =     0.04344   *10**21  V / m**2
                               V20  TOT/SRF=     0.03762    -0.01479
                               V22  TOT/SRF=     0.00563     0.00137
                               V22M TOT/SRF=     0.00755    -0.01830
                               V21  TOT/SRF=     0.00000     0.00000
                               V21M TOT/SRF=     0.00000     0.00000

             -0.01609    0.00755    0.00000       -0.01230    0.00000    0.00000
              0.00755   -0.02735    0.00000        0.00000   -0.03114    0.00000
              0.00000    0.00000    0.04344        0.00000    0.00000    0.04344

         MAIN DIRECTIONS OF THE EFG   1.0000 -0.5016  0.0000
                                      0.5016  1.0000  0.0000
                                      0.0000  0.0000  1.0000
:ANG001:  ANGLE WITH OLD X-AXIS =        26.6

:ETA001:                         ASYMM. ETA =     0.43353


       ATOMNUMBER=  2 O          VCOUL-ZERO = -0.55292E-01
:EFG002:                        EFG         =     3.11458   *10**21  V / m**2
                               V20  TOT/SRF=     0.03065     0.02316
                               V22  TOT/SRF=     0.62252     0.58252
                               V22M TOT/SRF=    -1.36283    -1.28688
                               V21  TOT/SRF=    -1.68989    -1.58498
                               V21M TOT/SRF=     1.50160     1.39642

              0.60482   -1.36283   -1.68989        3.11458    0.00000    0.00000
             -1.36283   -0.64021    1.50160        0.00000   -1.27296    0.00000
             -1.68989    1.50160    0.03539        0.00000    0.00000   -1.84162

         MAIN DIRECTIONS OF THE EFG   1.0000  1.0000  0.0118
                                     -0.7235  0.5287  1.0000
                                     -0.9017  0.6848 -0.7894
:ANG002:  ANGLE WITH OLD X-AXIS =        45.0

:ETA002:                         ASYMM. ETA =     0.18258


     HELLMANN-FEYNMAN-FORCE IN mRy/a.u. = |F|  Fx       Fy             Fz
:FHF001:   1.ATOM      5.155480836885      0.000000000000      0.000000000000     -5.155480836885

     HELLMANN-FEYNMAN-FORCE IN mRy/a.u. = |F|  Fx       Fy             Fz
:FHF002:   2.ATOM   1033.067346033569   -796.304906595529   -413.962007476224   -511.626908536859

:FIT001: LUSE= 13 SIGMA OF V-XC FIT FOR ATOM  1  0.1428741E-02
:FIT001: LUSE= 13 SIGMA OF V-XC FIT FOR ATOM  1  0.1428741E-02
:FIT002: LUSE= 13 SIGMA OF V-XC FIT FOR ATOM  2  0.2230139E-03
:FIT002: LUSE= 13 SIGMA OF V-XC FIT FOR ATOM  2  0.2230139E-03
:DEN  : DENSITY INTEGRAL  =         -1211.98477402   (Ry)
       ELS_POTENTIAL_AT Z=0 and Z=0.5:   0.04356  -0.08591
       ELS_POTENTIAL_AT Y=0 and Y=0.5:   0.00000   0.00000
:VZERO:v0,v0c,v0x  -0.71520   0.04356  -0.75876 v5,v5c,v5x  -0.78114  -0.08591  -0.69523
:VZERY:v0,v0c,v0x  -0.72890   0.00000  -0.72890 v5,v5c,v5x  -0.72890   0.00000  -0.72890
:VZERX:v0,v0c,v0x  -0.14600   0.27572  -0.42172 v5,v5c,v5x  -2.53186  -1.62988  -0.90198
:LMAX-WF:   10   Non-Spherical LMAX:   4

          ATOMIC SPHERE DEPENDENT PARAMETERS FOR ATOM  Si        
:e__0001: OVERALL ENERGY PARAMETER IS   -0.3000
          OVERALL BASIS SET ON ATOM IS LAPW
:E0_0001: E( 0)=   -0.3000
             APW+lo
:E1_0001: E( 1)=   -0.3000
             APW+lo

          ATOMIC SPHERE DEPENDENT PARAMETERS FOR ATOM  O         
:e__0002: OVERALL ENERGY PARAMETER IS   -0.3000
          OVERALL BASIS SET ON ATOM IS LAPW
:E0_0002: E( 0)=    0.1000
             APW+lo
:E0_0002: E( 0)=   -1.2266   E(BOTTOM)=   -2.531   E(TOP)=    0.078  1  2   233
             LOCAL ORBITAL
:E1_0002: E( 1)=   -0.3000
             APW+lo

       K=   0.00000   0.00000   0.00000            1
:RKM  : MATRIX SIZE  1625LOs:  42  RKM= 6.97  WEIGHT= 1.00  PGR:    
       EIGENVALUES ARE:
:EIG00001:      -1.4798413   -1.3794133   -1.3794133   -1.3376315   -1.3358955
:EIG00006:      -1.3358955   -0.6502288   -0.6502288   -0.4658429   -0.4622818
:EIG00011:      -0.4497018   -0.4497017   -0.2753756   -0.2753756   -0.2615419
:EIG00016:      -0.2434127   -0.1918781   -0.1918781   -0.1896453   -0.1556740
:EIG00021:      -0.1556739   -0.1364656   -0.1116275   -0.1116275    0.4509307
:EIG00026:       0.7119614    0.7119614    0.7324473    0.7324473    0.8372097
:EIG00031:       0.8465356    0.9057836    0.9302831    0.9302832    0.9590253
:EIG00036:       0.9590253    1.0313327    1.1073282    1.1174750    1.1174750
:EIG00041:       1.1308596    1.1308596    1.2461979    1.2461979    1.3411239
:EIG00046:       1.3881531    1.3881531
 
       ********************************************************

:KPT   :      NUMBER OF K-POINTS:    94
       Insulator, EF-inconsistency corrected
:GAP (global)   :  0.546051 Ry =     7.429 eV (accurate value if proper k-mesh)
         Bandranges (emin - emax) and occupancy:
:BAN00014:  14   -0.289551   -0.257322  2.00000000
:BAN00015:  15   -0.268010   -0.245567  2.00000000
:BAN00016:  16   -0.246830   -0.218847  2.00000000
:BAN00017:  17   -0.228575   -0.191878  2.00000000
:BAN00018:  18   -0.211664   -0.187583  2.00000000
:BAN00019:  19   -0.209373   -0.156924  2.00000000
:BAN00020:  20   -0.188723   -0.154600  2.00000000
:BAN00021:  21   -0.169304   -0.147085  2.00000000
:BAN00022:  22   -0.147515   -0.107818  2.00000000
:BAN00023:  23   -0.133506   -0.101496  2.00000000
:BAN00024:  24   -0.124591   -0.095120  2.00000000
:BAN00025:  25    0.450931    0.663023  0.00000000
:BAN00026:  26    0.578035    0.715410  0.00000000
:BAN00027:  27    0.691460    0.736622  0.00000000
:BAN00028:  28    0.718435    0.778152  0.00000000
:BAN00029:  29    0.732447    0.792282  0.00000000
        Energy to separate low and high energystates:   -0.77068


:NOE  : NUMBER OF ELECTRONS          =   48.000

:FER  : F E R M I - ENERGY(TETRAH.M.)=  -0.0951202553
:GMA  : POTENTIAL AND CHARGE CUT-OFF  12.00 Ry**.5

:POS001: ATOM   -1 X,Y,Z = 0.46913 0.46913 0.50000  MULT= 3  ZZ= 14.000  Si        

       LMMAX 25
       LM=   0 0  1 0  2 0  2 2 -2 2  3 0  3 2 -3 2  4 0  4 2 -4 2  4 4 -4 4  5 0  5 2 -5 2  5 4
        -5 4  6 0  6 2 -6 2  6 4 -6 4  6 6 -6 6

:CHA001: TOTAL VALENCE CHARGE INSIDE SPHERE   1 =   0.5058    (RMT=  1.4000 )
:PCS001: PARTIAL CHARGES SPHERE =  1 S,P,D,F,PX,PY,PZ,D-Z2,D-X2Y2,D-XY,D-XZ,D-YZ 
:QTL001: 0.1749 0.2277 0.0935 0.0082 0.0766 0.0772 0.0740 0.0106 0.0146 0.0208 0.0241 0.0234
        Q-s-low E-s-low   Q-p-low E-p-low   Q-d-low E-d-low   Q-f-low E-f-low
:EPL001:  0.0482 -1.4258    0.0443 -1.3545    0.0139 -1.3545    0.0017 -1.3961
        Q-s-hi  E-s-hi    Q-p-hi  E-p-hi    Q-d-hi  E-d-hi    Q-f-hi  E-f-hi 
:EPH001:  0.1267 -0.5884    0.1834 -0.4382    0.0795 -0.3028    0.0065 -0.2843

                      QXX         QXY         QYY         QZZ       UP TO R
:VZZ001:            -0.23210     0.20190    -0.39923     0.63133       1.400

:POS002: ATOM   -2 X,Y,Z = 0.14451 0.41337 0.61807  MULT= 6  ZZ=  8.000  O         

       LMMAX 49

:CHA002: TOTAL VALENCE CHARGE INSIDE SPHERE   2 =   5.7706    (RMT=  1.6200 )
:PCS002: PARTIAL CHARGES SPHERE =  2 S,P,D,F,PX,PY,PZ,D-Z2,D-X2Y2,D-XY,D-XZ,D-YZ 
:QTL002: 1.6101 4.1434 0.0128 0.0039 1.3730 1.3904 1.3800 0.0020 0.0029 0.0023 0.0028 0.0028
        Q-s-low E-s-low   Q-p-low E-p-low   Q-d-low E-d-low   Q-f-low E-f-low
:EPL002:  1.5478 -1.3739    0.0201 -1.3841    0.0038 -1.3836    0.0003 -1.3769
        Q-s-hi  E-s-hi    Q-p-hi  E-p-hi    Q-d-hi  E-d-hi    Q-f-hi  E-f-hi 
:EPH002:  0.0623 -0.3628    4.1233 -0.2884    0.0089 -0.3729    0.0036 -0.3554

                      QXX         QXY         QYY         QZZ       UP TO R
:VZZ002:             1.08077    -2.39256    -1.20052     0.11974       1.620

:CHA  : TOTAL VALENCE CHARGE INSIDE UNIT CELL =      48.000000

:SUM  : SUM OF EIGENVALUES =         -27.384074492


        1.ATOM      Si                    4 CORE STATES
       CORE-FORCE in mRy/a.u. = |F|      Fx             Fy             Fz
:FCO001:   1.ATOM      1.294515851954      0.000000000000      0.000000000000      1.294515851954

:1S 001: 1S                -130.000889530 Ry
:2S 001: 2S                  -9.502573186 Ry
:2PP001: 2P*                 -6.363994852 Ry
:2P 001: 2P                  -6.316639114 Ry

        2.ATOM      O                     1 CORE STATES
       CORE-FORCE in mRy/a.u. = |F|      Fx             Fy             Fz
:FCO002:   2.ATOM    288.348213465108    222.093068495036    115.602945316772    143.022096786008

:1S 002: 1S                 -36.917560866 Ry
:CINT001 Core Integral Atom   1    9.920427
:CINT002 Core Integral Atom   2    2.003898

       DENSITY AT NUCLEUS
        JATOM        VALENCE       SEMI-CORE          CORE           TOTAL
:RTO001:   1        5.328182     1868.324657        0.000000     1873.652839
:RTO002:   2       15.283678      299.234682        0.000000      314.518360
     
       CHARGES OF NEW CHARGE DENSITY
:NTO   : INTERSTITIAL CHARGE =    12.074617
:NPC   : PW Pseudocharge     =    26.858281
:NTO001: CHARGE SPHERE  1    =    10.426239
:NTO002: CHARGE SPHERE  2    =     7.774547

:NEC01: NUCLEAR AND ELECTRONIC CHARGE     90.00000    90.00062
     
       CHARGES OF OLD CHARGE DENSITY
:OTO   : INTERSTITIAL CHARGE =    15.342241
:OPC   : PW Pseudocharge     =    26.688763
:OTO001: CHARGE SPHERE  1    =    10.600920
:OTO002: CHARGE SPHERE  2    =     7.142500

:NEC02: NUCLEAR AND ELECTRONIC CHARGE     90.00000    90.00000
     
       CONVERGENCE TEST
:DTO001: DIFFERENCE IN SPHERE  1 =  0.2513798
:DTO002: DIFFERENCE IN SPHERE  2 =  0.7285717

:DIS  :  CHARGE DISTANCE       ( 0.7285717 for atom    2 spin 1)      0.5695077
 PW Mixed is         2149
 
******************************************************
* MULTISECANT MIXING VER9 RELEASE 10.4.0              *
* Standard Mode with controls                        *
* Fixed density scale                                *
* Regularization       1.000E-04                     *
* Trust Upper Limit    5.000E+00                     *
* Max Number of Memory Steps    8                    *
******************************************************
 
:PWTMP   6.1772E+02  5.7600E+02  7.5905E+02
:PLANE:  PW TOTAL      8.5592 DISTAN   8.59E-01  1.00E+01 %
:CHARG:  CLM/ATOM     80.5004 DISTAN   9.41E-01  1.17E+00 %
 
Step History
        DMIX         DMIXT        Red     Pred      Trust     Lambda    MagRel    MagAbs     Beta
  1   3.5000E-02   3.5000E-02 -1.00E+00  1.00E+00 -1.00E+01  1.00E+00  3.50E-02  3.50E-02  1.00E+00
  2   3.5000E-02   3.5000E-02  7.31E-01  1.00E+00 -1.00E+01  1.00E+00  3.50E-02  1.18E-01  1.00E+00
  3   5.9310E-02   5.9310E-02  9.61E-01  1.00E+00 -1.00E+01  9.76E-02  5.93E-02  1.46E-01  1.00E+00
  4   5.2987E-02   5.2987E-02 -1.00E+00  9.80E-01  3.31E-01  1.00E+00  5.23E-02  1.24E-01  9.68E-01
:JACOBIANS    8.783E-01   1.660E-01
  
:NORMS:  1/Froebius, Min, Max, Used   0.7572E+00  0.4658E+00  0.1006E+01  0.8331E+00
:INFO :  Number of Memory Steps    3 Skipping    0
:INFO :  SLambda=    1.4415294867  Max    1.4415294867
:PREDicted Charge, CTotal, PW Trust    2.894E-01   1.496E+00   1.542E+00
:PREDicted DMix, Beta, BLim   3.7953E-01  4.0871E+00  2.2185E+00

Eigenvalues, unscaled except for SY+YY
   #     SY Real        SY Imag          SS             YY         SY+YY Real      SY+YY Imag
   1   1.726235E+00   0.000000E+00   1.564264E+00   2.253809E+00   4.655353E+00   0.000000E+00
   2  -2.227702E-16   0.000000E+00   1.556794E-01   7.461466E-01   4.581473E-05   0.000000E+00
   3   3.450171E-01   0.000000E+00   1.019809E-16   4.401906E-05   1.330371E+00   0.000000E+00
 
:INFO :  Singular value  4.664E+00 Weight  1.000E+00 Projection -2.999E-01
:INFO :  Singular value  1.328E+00 Weight  1.000E+00 Projection -2.124E+00
:INFO :  Singular value  4.581E-05 Weight  3.968E-02 Projection -1.929E+00
:RANK :  ACTIVE   2.04/3  =  67.99 % ; YY RANK   2.04/3  =  67.89 %
 
:BLIM :  VZERO Control Off
:TRUST:  Step 3.77E-01  Charge 8.25E-02 (e) CTO  2.96E-01 (e) PW  4.56E-01 (e)
:DTRUS:  Lambda    8.956E+00 Increment    7.276E-12 Iterations   126 DMIX    4.351E-02
:INFOA:  Angle SubSpace to MSR1     30.72
:DIRM :  MEMORY  3/8  SCALE   1.000 RED  0.88 PRED  0.98 NEXT  0.81 
:TRAVE:  Charge 4.77E-02 (e) CTO  2.46E-01 (e) PW  1.71E-01 (e)
:DIRP :  |MSR1|= 8.403E-02 |PRATT|= 8.593E-01 ANGLE=  10.3 DEGREES
:DIRQ :  |MSR1|= 1.617E-01 |PRATT|= 1.882E+00 ANGLE=   9.1 DEGREES
:DIRT :  |MSR1|= 1.823E-01 |PRATT|= 2.069E+00 ANGLE=   9.8 DEGREES
:MIX  :   MSE1   REGULARIZATION:  2.25E-04 GREED: 0.13247  LMStep 0.19  0.0881 CTotal         
     
       CHARGES OF MIXED CHARGE DENSITY
:CTO   : INTERSTITIAL CHARGE =    15.046233
:CPC   : PW Pseudocharge     =    26.727394
:CTO001: CHARGE SPHERE  1    =    10.584863
:CTO002: CHARGE SPHERE  2    =     7.199863

:NEC03: NUCLEAR AND ELECTRONIC CHARGE     90.00000    90.00000

PW CHANGE     H    K    L             Current                    Change               Residue
:PTO001:      0    0    0  5.50338361E-02 0.00000000E+00 -3.391E-04  0.000E+00 -4.084E-03  0.000E+00
:PTO002:      0    0   -1 -6.70969565E-10 0.00000000E+00  7.378E-11  0.000E+00  6.929E-10  0.000E+00
:PTO003:     -1    0    0 -3.91442076E-02 0.00000000E+00  1.511E-04  0.000E+00  1.897E-03  0.000E+00
:PTO004:     -1    0   -1  4.46195881E-02-7.72833918E-02 -5.261E-06  9.113E-06 -3.833E-04  6.638E-04
:PTO005:     -1    0    1  2.67152303E-02 4.62721350E-02 -1.072E-05 -1.857E-05 -2.921E-04 -5.059E-04
:PTO006:      0    0   -2 -3.38203660E-10 0.00000000E+00  2.975E-11  0.000E+00  2.848E-10  0.000E+00
:PTO007:     -2    1    0 -1.59921845E-02-2.37015066E-02 -1.810E-05 -1.364E-04 -1.579E-04 -9.770E-04
:PTO008:     -1   -1    0 -1.59921845E-02 2.37015066E-02 -1.810E-05  1.364E-04 -1.579E-04  9.770E-04
:PTO009:     -1    0   -2  3.81131404E-02 6.60138988E-02  2.148E-04  3.721E-04  1.495E-03  2.589E-03
:PTO010:     -1    0    2  8.72768142E-04-1.51167884E-03  4.667E-05 -8.084E-05  1.399E-04 -2.424E-04
:PTO011:     -2    1   -1 -4.67663944E-02-2.54802981E-02 -3.140E-04 -1.367E-04 -2.346E-03 -6.610E-04
:PTO012:     -1   -1   -1  4.54497820E-02 2.77607375E-02  2.754E-04  2.035E-04  1.746E-03  1.701E-03

:ENE  : ********** TOTAL ENERGY IN Ry =        -2633.38399368

       TOTAL FORCE IN mRy/a.u. = |F|     Fx             Fy             Fz     with/without FOR in case.in2
:FOR001:   1.ATOM          3.861          0.000          0.000         -3.861 partial forces
:FOR002:   2.ATOM        744.719       -574.212       -298.359       -368.605 partial forces
       TOTAL FORCE WITH RESPECT TO GLOBAL CARTESIAN COORDINATES:
:FCA001:   1.ATOM                        -3.344         -1.930          0.000 partial forces
:FCA002:   2.ATOM                      -574.212       -298.359       -368.605 partial forces
       TOTAL FORCE WITH RESPECT TO THE GLOBAL COORDINATE SYSTEM:
:FGL001:   1.ATOM                -3.860964985    -3.860964985     0.000000000 partial forces
:FGL002:   2.ATOM              -663.042718598  -629.880421459  -368.604811751 partial forces
 Flat Integration
 New Mode for Coulomb Integral
 Consistent 3/8+Simpson combinations
 Extension of core to zero
 LDM version in phi
 Fifth-order quadrature in outwin


            ---------
:ITE005:  5. ITERATION
            ---------

:NATO :    2 INDEPENDENT AND    9 TOTAL ATOMS IN UNITCELL
       SUBSTANCE: SiO2 for tests                                              

       LATTICE                      = H   
:POT  : POTENTIAL OPTION EX_LDA EC_LDA VX_LDA VC_LDA
:LAT  : LATTICE CONSTANTS=  9.26193  9.26193 10.21737
:VOL  : UNIT CELL VOLUME =     759.05354
       MODE OF CALCULATION IS       = RELA
       NON-SPINPOLARIZED CALCULATION
:IFFT  : FFT-parameters:   72   72   80 Factor: 2.00


   CONVERGENCE PARAMETER FOR PSEUDOCHARGE: NCON=  9
   MAXIMAL VALUE OF RMT(JATOM)*ABSK(NKK) : RK  =19.43469


:VKCOUL :  VK-COUL convergence: 0.341E-05
       ATOMNUMBER=  1 Si         VCOUL-ZERO = -0.14372E+01
:EFG001:                        EFG         =     0.11160   *10**21  V / m**2
                               V20  TOT/SRF=     0.09665    -0.01161
                               V22  TOT/SRF=     0.01606     0.00027
                               V22M TOT/SRF=     0.02650    -0.01654
                               V21  TOT/SRF=     0.00000     0.00000
                               V21M TOT/SRF=     0.00000     0.00000

             -0.03974    0.02650    0.00000       -0.02482    0.00000    0.00000
              0.02650   -0.07187    0.00000        0.00000   -0.08679    0.00000
              0.00000    0.00000    0.11160        0.00000    0.00000    0.11160

         MAIN DIRECTIONS OF THE EFG   1.0000 -0.5632  0.0000
                                      0.5632  1.0000  0.0000
                                      0.0000  0.0000  1.0000
:ANG001:  ANGLE WITH OLD X-AXIS =        29.4

:ETA001:                         ASYMM. ETA =     0.55529


       ATOMNUMBER=  2 O          VCOUL-ZERO = -0.40083E-01
:EFG002:                        EFG         =     3.70888   *10**21  V / m**2
                               V20  TOT/SRF=     0.04151     0.02363
                               V22  TOT/SRF=     0.74314     0.58333
                               V22M TOT/SRF=    -1.61448    -1.28740
                               V21  TOT/SRF=    -2.01190    -1.58517
                               V21M TOT/SRF=     1.79712     1.39599

              0.71917   -1.61448   -2.01190        3.70888    0.00000    0.00000
             -1.61448   -0.76711    1.79712        0.00000   -1.50652    0.00000
             -2.01190    1.79712    0.04794        0.00000    0.00000   -2.20237

         MAIN DIRECTIONS OF THE EFG   1.0000  1.0000  0.0069
                                     -0.7241  0.5317  1.0000
                                     -0.9050  0.6796 -0.7924
:ANG002:  ANGLE WITH OLD X-AXIS =        45.0

:ETA002:                         ASYMM. ETA =     0.18762


     HELLMANN-FEYNMAN-FORCE IN mRy/a.u. = |F|  Fx       Fy             Fz
:FHF001:   1.ATOM      5.614087300301      0.000000000000      0.000000000000     -5.614087300301

     HELLMANN-FEYNMAN-FORCE IN mRy/a.u. = |F|  Fx       Fy             Fz
:FHF002:   2.ATOM    975.514448852875   -751.332641770321   -393.197502691221   -482.206828247533

:FIT001: LUSE= 13 SIGMA OF V-XC FIT FOR ATOM  1  0.1710503E-02
:FIT001: LUSE= 13 SIGMA OF V-XC FIT FOR ATOM  1  0.1710503E-02
:FIT002: LUSE= 13 SIGMA OF V-XC FIT FOR ATOM  2  0.2484283E-03
:FIT002: LUSE= 13 SIGMA OF V-XC FIT FOR ATOM  2  0.2484283E-03
:DEN  : DENSITY INTEGRAL  =         -1213.77269293   (Ry)
       ELS_POTENTIAL_AT Z=0 and Z=0.5:   0.04631  -0.08915
       ELS_POTENTIAL_AT Y=0 and Y=0.5:   0.00000   0.00000
:VZERO:v0,v0c,v0x  -0.70787   0.04631  -0.75419 v5,v5c,v5x  -0.78096  -0.08915  -0.69182
:VZERY:v0,v0c,v0x  -0.72470   0.00000  -0.72470 v5,v5c,v5x  -0.72470   0.00000  -0.72470
:VZERX:v0,v0c,v0x  -0.15285   0.26596  -0.41881 v5,v5c,v5x  -2.53377  -1.63391  -0.89986
:LMAX-WF:   10   Non-Spherical LMAX:   4

          ATOMIC SPHERE DEPENDENT PARAMETERS FOR ATOM  Si        
:e__0001: OVERALL ENERGY PARAMETER IS   -0.2967
          OVERALL BASIS SET ON ATOM IS LAPW
:E0_0001: E( 0)=   -0.2967
             APW+lo
:E1_0001: E( 1)=   -0.2967
             APW+lo

          ATOMIC SPHERE DEPENDENT PARAMETERS FOR ATOM  O         
:e__0002: OVERALL ENERGY PARAMETER IS   -0.2967
          OVERALL BASIS SET ON ATOM IS LAPW
:E0_0002: E( 0)=    0.1033
             APW+lo
:E0_0002: E( 0)=   -1.1835   E(BOTTOM)=   -2.496   E(TOP)=    0.129  1  2   231
             LOCAL ORBITAL
:E1_0002: E( 1)=   -0.2967
             APW+lo

       K=   0.00000   0.00000   0.00000            1
:RKM  : MATRIX SIZE  1625LOs:  42  RKM= 6.97  WEIGHT= 1.00  PGR:    
       EIGENVALUES ARE:
:EIG00001:      -1.4501140   -1.3461639   -1.3461639   -1.3026079   -1.3006657
:EIG00006:      -1.3006657   -0.6263434   -0.6263434   -0.4362423   -0.4338106
:EIG00011:      -0.4206654   -0.4206654   -0.2469097   -0.2469097   -0.2317617
:EIG00016:      -0.2134369   -0.1580545   -0.1580545   -0.1559541   -0.1214244
:EIG00021:      -0.1214244   -0.1013745   -0.0757440   -0.0757440    0.4602596
:EIG00026:       0.7160394    0.7160394    0.7400782    0.7400783    0.8409602
:EIG00031:       0.8598711    0.9146646    0.9413948    0.9413948    0.9754162
:EIG00036:       0.9754162    1.0434449    1.1151284    1.1238634    1.1238634
:EIG00041:       1.1347757    1.1347757    1.2517346    1.2517346    1.3461044
:EIG00046:       1.3938886    1.3938887
 
       ********************************************************

:KPT   :      NUMBER OF K-POINTS:    94
       Insulator, EF-inconsistency corrected
:GAP (global)   :  0.518115 Ry =     7.049 eV (accurate value if proper k-mesh)
         Bandranges (emin - emax) and occupancy:
:BAN00014:  14   -0.262155   -0.227604  2.00000000
:BAN00015:  15   -0.239957   -0.214950  2.00000000
:BAN00016:  16   -0.216428   -0.187233  2.00000000
:BAN00017:  17   -0.197192   -0.158055  2.00000000
:BAN00018:  18   -0.179601   -0.154598  2.00000000
:BAN00019:  19   -0.177168   -0.122432  2.00000000
:BAN00020:  20   -0.155920   -0.120224  2.00000000
:BAN00021:  21   -0.135628   -0.112538  2.00000000
:BAN00022:  22   -0.112673   -0.071225  2.00000000
:BAN00023:  23   -0.098234   -0.064723  2.00000000
:BAN00024:  24   -0.089109   -0.057855  2.00000000
:BAN00025:  25    0.460260    0.675424  0.00000000
:BAN00026:  26    0.590825    0.726426  0.00000000
:BAN00027:  27    0.703187    0.743222  0.00000000
:BAN00028:  28    0.720106    0.785688  0.00000000
:BAN00029:  29    0.740078    0.799440  0.00000000
        Energy to separate low and high energystates:   -0.74927


:NOE  : NUMBER OF ELECTRONS          =   48.000

:FER  : F E R M I - ENERGY(TETRAH.M.)=  -0.0578551186
:GMA  : POTENTIAL AND CHARGE CUT-OFF  12.00 Ry**.5

:POS001: ATOM   -1 X,Y,Z = 0.46913 0.46913 0.50000  MULT= 3  ZZ= 14.000  Si        

       LMMAX 25
       LM=   0 0  1 0  2 0  2 2 -2 2  3 0  3 2 -3 2  4 0  4 2 -4 2  4 4 -4 4  5 0  5 2 -5 2  5 4
        -5 4  6 0  6 2 -6 2  6 4 -6 4  6 6 -6 6

:CHA001: TOTAL VALENCE CHARGE INSIDE SPHERE   1 =   0.5234    (RMT=  1.4000 )
:PCS001: PARTIAL CHARGES SPHERE =  1 S,P,D,F,PX,PY,PZ,D-Z2,D-X2Y2,D-XY,D-XZ,D-YZ 
:QTL001: 0.1808 0.2363 0.0965 0.0082 0.0794 0.0802 0.0767 0.0111 0.0151 0.0215 0.0248 0.0240
        Q-s-low E-s-low   Q-p-low E-p-low   Q-d-low E-d-low   Q-f-low E-f-low
:EPL001:  0.0505 -1.3941    0.0457 -1.3200    0.0141 -1.3200    0.0017 -1.3632
        Q-s-hi  E-s-hi    Q-p-hi  E-p-hi    Q-d-hi  E-d-hi    Q-f-hi  E-f-hi 
:EPH001:  0.1304 -0.5623    0.1906 -0.4085    0.0824 -0.2678    0.0065 -0.2470

                      QXX         QXY         QYY         QZZ       UP TO R
:VZZ001:            -0.22951     0.19950    -0.43681     0.66632       1.400

:POS002: ATOM   -2 X,Y,Z = 0.14451 0.41337 0.61807  MULT= 6  ZZ=  8.000  O         

       LMMAX 49

:CHA002: TOTAL VALENCE CHARGE INSIDE SPHERE   2 =   5.7008    (RMT=  1.6200 )
:PCS002: PARTIAL CHARGES SPHERE =  2 S,P,D,F,PX,PY,PZ,D-Z2,D-X2Y2,D-XY,D-XZ,D-YZ 
:QTL002: 1.6020 4.0810 0.0133 0.0040 1.3527 1.3691 1.3592 0.0021 0.0030 0.0024 0.0029 0.0029
        Q-s-low E-s-low   Q-p-low E-p-low   Q-d-low E-d-low   Q-f-low E-f-low
:EPL002:  1.5359 -1.3402    0.0206 -1.3512    0.0039 -1.3505    0.0003 -1.3433
        Q-s-hi  E-s-hi    Q-p-hi  E-p-hi    Q-d-hi  E-d-hi    Q-f-hi  E-f-hi 
:EPH002:  0.0661 -0.3360    4.0604 -0.2566    0.0094 -0.3400    0.0037 -0.3242

                      QXX         QXY         QYY         QZZ       UP TO R
:VZZ002:             1.01776    -2.24154    -1.13361     0.11585       1.620

:CHA  : TOTAL VALENCE CHARGE INSIDE UNIT CELL =      48.000000

:SUM  : SUM OF EIGENVALUES =         -25.868138828


        1.ATOM      Si                    4 CORE STATES
       CORE-FORCE in mRy/a.u. = |F|      Fx             Fy             Fz
:FCO001:   1.ATOM      1.502576223838      0.000000000000      0.000000000000      1.502576223838

:1S 001: 1S                -130.021793136 Ry
:2S 001: 2S                  -9.517629083 Ry
:2PP001: 2P*                 -6.379357235 Ry
:2P 001: 2P                  -6.331971178 Ry

        2.ATOM      O                     1 CORE STATES
       CORE-FORCE in mRy/a.u. = |F|      Fx             Fy             Fz
:FCO002:   2.ATOM    294.275056344710    226.365824217389    118.625002187486    145.891847849986

:1S 002: 1S                 -36.840435895 Ry
:CINT001 Core Integral Atom   1    9.920830
:CINT002 Core Integral Atom   2    2.003874

       DENSITY AT NUCLEUS
        JATOM        VALENCE       SEMI-CORE          CORE           TOTAL
:RTO001:   1        5.503983     1868.400450        0.000000     1873.904432
:RTO002:   2       15.094822      299.213653        0.000000      314.308474
     
       CHARGES OF NEW CHARGE DENSITY
:NTO   : INTERSTITIAL CHARGE =    12.439962
:NPC   : PW Pseudocharge     =    26.778430
:NTO001: CHARGE SPHERE  1    =    10.444208
:NTO002: CHARGE SPHERE  2    =     7.704672

:NEC01: NUCLEAR AND ELECTRONIC CHARGE     90.00000    90.00062
     
       CHARGES OF OLD CHARGE DENSITY
:OTO   : INTERSTITIAL CHARGE =    15.046233
:OPC   : PW Pseudocharge     =    26.727394
:OTO001: CHARGE SPHERE  1    =    10.584863
:OTO002: CHARGE SPHERE  2    =     7.199863

:NEC02: NUCLEAR AND ELECTRONIC CHARGE     90.00000    90.00000
     
       CONVERGENCE TEST
:DTO001: DIFFERENCE IN SPHERE  1 =  0.2037258
:DTO002: DIFFERENCE IN SPHERE  2 =  0.5597029

:DIS  :  CHARGE DISTANCE       ( 0.5597029 for atom    2 spin 1)      0.4410439
 PW Mixed is         2149
 
******************************************************
* MULTISECANT MIXING VER9 RELEASE 10.4.0              *
* Standard Mode with controls                        *
* Fixed density scale                                *
* Regularization       1.000E-04                     *
* Trust Upper Limit    5.000E+00                     *
* Max Number of Memory Steps    8                    *
******************************************************
 
:PWTMP   6.1772E+02  5.7600E+02  7.5905E+02
:PLANE:  PW TOTAL      8.5500 DISTAN   7.74E-01  9.06E+00 %
:CHARG:  CLM/ATOM     80.4912 DISTAN   7.31E-01  9.08E-01 %
 
Step History
        DMIX         DMIXT        Red     Pred      Trust     Lambda    MagRel    MagAbs     Beta
  1   3.5000E-02   3.5000E-02 -1.00E+00  1.00E+00 -1.00E+01  1.00E+00  3.50E-02  3.50E-02  1.00E+00
  2   3.5000E-02   3.5000E-02  7.31E-01  1.00E+00 -1.00E+01  1.00E+00  3.50E-02  1.18E-01  1.00E+00
  3   5.9310E-02   5.9310E-02  9.61E-01  1.00E+00 -1.00E+01  9.76E-02  5.93E-02  1.46E-01  1.00E+00
  4   5.2987E-02   5.2987E-02  8.76E-01  9.80E-01  3.31E-01  1.44E+00  5.23E-02  1.24E-01  9.68E-01
  5   1.3247E-01   4.3509E-02 -1.00E+00  8.13E-01  3.77E-01  1.00E+00  8.81E-02  1.82E-01  1.00E+00
:JACOBIANS    1.076E+00   3.933E-01
  
:NORMS:  1/Froebius, Min, Max, Used   0.6068E+00  0.5587E+00  0.1007E+01  0.6157E+00
:INFO :  Number of Memory Steps    4 Skipping    0
:INFO :  SLambda=    1.6795287631  Max    1.6795287631
:PREDicted Charge, CTotal, PW Trust    2.799E-01   1.436E+00   1.254E+00
:PREDicted DMix, Beta, BLim   4.5978E-01  1.4611E+00  1.8810E+00

Eigenvalues, unscaled except for SY+YY
   #     SY Real        SY Imag          SS             YY         SY+YY Real      SY+YY Imag
   1   1.570099E+00   0.000000E+00   1.155925E+00   3.260654E+00   5.760362E+00   0.000000E+00
   2   5.335415E-01   0.000000E+00   3.165854E-01   7.386825E-01   1.772151E+00   0.000000E+00
   3   1.836635E-16   0.000000E+00   4.664690E-04   6.409487E-04   2.608226E-05   0.000000E+00
   4   4.966198E-04   0.000000E+00   9.018787E-17   2.279238E-05   1.420026E-03   0.000000E+00
 
:INFO :  Singular value  5.776E+00 Weight  1.000E+00 Projection -5.208E-01
:INFO :  Singular value  1.767E+00 Weight  1.000E+00 Projection -1.314E+00
:INFO :  Singular value  1.421E-03 Weight  9.500E-01 Projection -2.558E+01
:INFO :  Singular value  2.606E-05 Weight  6.348E-03 Projection -5.972E-01
:RANK :  ACTIVE   2.96/4  =  73.91 % ; YY RANK   2.80/4  =  69.98 %
 
Increasing CTO by   1.282
:BLIM :  VZERO Control Off
:TRUST:  Step 5.65E-01  Charge 9.08E-02 (e) CTO  4.17E-01 (e) PW  5.01E-01 (e)
:DTRUS:  Lambda    1.137E+01 Increment    7.276E-12 Iterations   134 DMIX    1.109E-01
:INFOA:  Angle SubSpace to MSR1     35.03
:DIRM :  MEMORY  4/8  SCALE   1.000 RED  0.80 PRED  0.81 NEXT  0.70 
:TRAVE:  Charge 6.45E-02 (e) CTO  3.32E-01 (e) PW  2.37E-01 (e)
:DIRP :  |MSR1|= 1.247E-01 |PRATT|= 7.745E-01 ANGLE=   6.6 DEGREES
:DIRQ :  |MSR1|= 2.212E-01 |PRATT|= 1.462E+00 ANGLE=  18.8 DEGREES
:DIRT :  |MSR1|= 2.539E-01 |PRATT|= 1.655E+00 ANGLE=  16.9 DEGREES
:MIX  :   MSE1   REGULARIZATION:  3.26E-04 GREED: 0.27553  LMStep 0.23  0.1535 CTotal         
     
       CHARGES OF MIXED CHARGE DENSITY
:CTO   : INTERSTITIAL CHARGE =    14.628902
:CPC   : PW Pseudocharge     =    26.746942
:CTO001: CHARGE SPHERE  1    =    10.561207
:CTO002: CHARGE SPHERE  2    =     7.281246

:NEC03: NUCLEAR AND ELECTRONIC CHARGE     90.00000    90.00000

PW CHANGE     H    K    L             Current                    Change               Residue
:PTO001:      0    0    0  5.45097838E-02 0.00000000E+00 -5.241E-04  0.000E+00 -3.369E-03  0.000E+00
:PTO002:      0    0   -1 -5.58636167E-10 0.00000000E+00  1.123E-10  0.000E+00  6.193E-10  0.000E+00
:PTO003:     -1    0    0 -3.88999717E-02 0.00000000E+00  2.442E-04  0.000E+00  1.452E-03  0.000E+00
:PTO004:     -1    0   -1  4.45798057E-02-7.72144866E-02 -3.978E-05  6.891E-05 -2.869E-04  4.969E-04
:PTO005:     -1    0    1  2.66811154E-02 4.62130463E-02 -3.411E-05 -5.909E-05 -1.847E-04 -3.200E-04
:PTO006:      0    0   -2 -2.92664789E-10 0.00000000E+00  4.554E-11  0.000E+00  2.552E-10  0.000E+00
:PTO007:     -2    1    0 -1.60077525E-02-2.38376258E-02 -1.557E-05 -1.361E-04 -5.051E-05 -5.838E-04
:PTO008:     -1   -1    0 -1.60077525E-02 2.38376258E-02 -1.557E-05  1.361E-04 -5.051E-05  5.838E-04
:PTO009:     -1    0   -2  3.83139355E-02 6.63616861E-02  2.008E-04  3.478E-04  8.207E-04  1.422E-03
:PTO010:     -1    0    2  8.98537907E-04-1.55631338E-03  2.577E-05 -4.463E-05 -1.073E-05  1.859E-05
:PTO011:     -2    1   -1 -4.70855741E-02-2.55661577E-02 -3.192E-04 -8.586E-05 -1.492E-03 -1.048E-04
:PTO012:     -1   -1   -1  4.56837285E-02 2.79942254E-02  2.339E-04  2.335E-04  8.365E-04  1.239E-03

:ENE  : ********** TOTAL ENERGY IN Ry =        -2633.22239336

       TOTAL FORCE IN mRy/a.u. = |F|     Fx             Fy             Fz     with/without FOR in case.in2
:FOR001:   1.ATOM          4.112          0.000          0.000         -4.112 partial forces
:FOR002:   2.ATOM        681.240       -524.967       -274.573       -336.315 partial forces
       TOTAL FORCE WITH RESPECT TO GLOBAL CARTESIAN COORDINATES:
:FCA001:   1.ATOM                        -3.561         -2.056          0.000 partial forces
:FCA002:   2.ATOM                      -524.967       -274.573       -336.315 partial forces
       TOTAL FORCE WITH RESPECT TO THE GLOBAL COORDINATE SYSTEM:
:FGL001:   1.ATOM                -4.111511076    -4.111511076     0.000000000 partial forces
:FGL002:   2.ATOM              -606.179466860  -577.662233934  -336.314980398 partial forces
 Flat Integration
 New Mode for Coulomb Integral
 Consistent 3/8+Simpson combinations
 Extension of core to zero
 LDM version in phi
 Fifth-order quadrature in outwin


            ---------
:ITE006:  6. ITERATION
            ---------

:NATO :    2 INDEPENDENT AND    9 TOTAL ATOMS IN UNITCELL
       SUBSTANCE: SiO2 for tests                                              

       LATTICE                      = H   
:POT  : POTENTIAL OPTION EX_LDA EC_LDA VX_LDA VC_LDA
:LAT  : LATTICE CONSTANTS=  9.26193  9.26193 10.21737
:VOL  : UNIT CELL VOLUME =     759.05354
       MODE OF CALCULATION IS       = RELA
       NON-SPINPOLARIZED CALCULATION
:IFFT  : FFT-parameters:   72   72   80 Factor: 2.00


   CONVERGENCE PARAMETER FOR PSEUDOCHARGE: NCON=  9
   MAXIMAL VALUE OF RMT(JATOM)*ABSK(NKK) : RK  =19.43469


:VKCOUL :  VK-COUL convergence: 0.341E-05
       ATOMNUMBER=  1 Si         VCOUL-ZERO = -0.14453E+01
:EFG001:                        EFG         =     0.21996   *10**21  V / m**2
                               V20  TOT/SRF=     0.19049    -0.00740
                               V22  TOT/SRF=     0.04212    -0.00137
                               V22M TOT/SRF=     0.04996    -0.01382
                               V21  TOT/SRF=     0.00000     0.00000
                               V21M TOT/SRF=     0.00000     0.00000

             -0.06786    0.04996    0.00000       -0.04463    0.00000    0.00000
              0.04996   -0.15210    0.00000        0.00000   -0.17533    0.00000
              0.00000    0.00000    0.21996        0.00000    0.00000    0.21996

         MAIN DIRECTIONS OF THE EFG   1.0000 -0.4649  0.0000
                                      0.4649  1.0000  0.0000
                                      0.0000  0.0000  1.0000
:ANG001:  ANGLE WITH OLD X-AXIS =        24.9

:ETA001:                         ASYMM. ETA =     0.59416


       ATOMNUMBER=  2 O          VCOUL-ZERO = -0.18502E-01
:EFG002:                        EFG         =     5.12273   *10**21  V / m**2
                               V20  TOT/SRF=     0.06228     0.02423
                               V22  TOT/SRF=     1.02568     0.58338
                               V22M TOT/SRF=    -2.22216    -1.28559
                               V21  TOT/SRF=    -2.77924    -1.58247
                               V21M TOT/SRF=     2.49023     1.39265

              0.98973   -2.22216   -2.77924        5.12273    0.00000    0.00000
             -2.22216   -1.06164    2.49023        0.00000   -2.07394    0.00000
             -2.77924    2.49023    0.07191        0.00000    0.00000   -3.04878

         MAIN DIRECTIONS OF THE EFG   1.0000  1.0000  0.0028
                                     -0.7248  0.5343  1.0000
                                     -0.9076  0.6752 -0.7955
:ANG002:  ANGLE WITH OLD X-AXIS =        45.0

:ETA002:                         ASYMM. ETA =     0.19030


     HELLMANN-FEYNMAN-FORCE IN mRy/a.u. = |F|  Fx       Fy             Fz
:FHF001:   1.ATOM      7.868686722287      0.000000000000      0.000000000000     -7.868686722287

     HELLMANN-FEYNMAN-FORCE IN mRy/a.u. = |F|  Fx       Fy             Fz
:FHF002:   2.ATOM    853.877188798446   -655.976912407193   -349.170768700106   -420.571418696563

:FIT001: LUSE= 13 SIGMA OF V-XC FIT FOR ATOM  1  0.2173558E-02
:FIT001: LUSE= 13 SIGMA OF V-XC FIT FOR ATOM  1  0.2173558E-02
:FIT002: LUSE= 13 SIGMA OF V-XC FIT FOR ATOM  2  0.2887462E-03
:FIT002: LUSE= 13 SIGMA OF V-XC FIT FOR ATOM  2  0.2887462E-03
[...]
:DIRM :  MEMORY  8/8  SCALE   1.000 RED  0.24 PRED  0.33 NEXT  0.87 BETA  0.93
:TRAVE:  Charge 5.72E-03 (e) CTO  2.95E-02 (e) PW  3.16E-02 (e)
:DIRP :  |MSR1|= 1.656E-04 |PRATT|= 5.680E-04 ANGLE=  54.2 DEGREES
:DIRQ :  |MSR1|= 3.498E-04 |PRATT|= 1.054E-03 ANGLE=  22.0 DEGREES
:DIRT :  |MSR1|= 3.870E-04 |PRATT|= 1.197E-03 ANGLE=  31.0 DEGREES
:MIX  :   MSE1   REGULARIZATION:  5.18E-04 GREED: 0.19346  Newton 1.00  0.3232                
     
       CHARGES OF MIXED CHARGE DENSITY
:CTO   : INTERSTITIAL CHARGE =    13.754161
:CPC   : PW Pseudocharge     =    26.349799
:CTO001: CHARGE SPHERE  1    =    10.506117
:CTO002: CHARGE SPHERE  2    =     7.454581

:NEC03: NUCLEAR AND ELECTRONIC CHARGE     90.00000    90.00000

PW CHANGE     H    K    L             Current                    Change               Residue
:PTO001:      0    0    0  5.28341655E-02 0.00000000E+00 -1.544E-07  0.000E+00  2.997E-07  0.000E+00
:PTO002:      0    0   -1 -5.04550111E-11 0.00000000E+00 -2.127E-13  0.000E+00 -5.890E-13  0.000E+00
:PTO003:     -1    0    0 -3.84620377E-02 0.00000000E+00 -4.691E-07  0.000E+00 -2.914E-06  0.000E+00
:PTO004:     -1    0   -1  4.43905529E-02-7.68866911E-02  9.950E-08 -1.723E-07  1.291E-06 -2.236E-06
:PTO005:     -1    0    1  2.66816732E-02 4.62140124E-02  1.755E-07  3.039E-07  1.265E-06  2.190E-06
:PTO006:      0    0   -2 -8.20490285E-11 0.00000000E+00 -8.229E-14  0.000E+00 -2.403E-13  0.000E+00
:PTO007:     -2    1    0 -1.56875443E-02-2.32517652E-02  5.429E-08  4.247E-07  4.158E-07  4.594E-07
:PTO008:     -1   -1    0 -1.56875443E-02 2.32517652E-02  5.429E-08 -4.247E-07  4.158E-07 -4.594E-07
:PTO009:     -1    0   -2  3.70785098E-02 6.42218659E-02 -6.216E-07 -1.077E-06 -4.343E-07 -7.522E-07
:PTO010:     -1    0    2  4.50619326E-04-7.80495606E-04 -2.500E-07  4.329E-07  2.337E-07 -4.047E-07
:PTO011:     -2    1   -1 -4.60195773E-02-2.39270691E-02  8.101E-07  5.275E-07  5.389E-07 -1.307E-07
:PTO012:     -1   -1   -1  4.37312377E-02 2.78905894E-02 -8.619E-07 -4.379E-07 -1.563E-07 -5.320E-07

:ENE  : ********** TOTAL ENERGY IN Ry =        -2632.96962912

       TOTAL FORCE IN mRy/a.u. = |F|     Fx             Fy             Fz     with/without FOR in case.in2
:FOR001:   1.ATOM          1.875          0.000          0.000          1.875 partial forces
:FOR002:   2.ATOM        146.945       -113.905        -58.530        -72.061 partial forces
       TOTAL FORCE WITH RESPECT TO GLOBAL CARTESIAN COORDINATES:
:FCA001:   1.ATOM                         1.624          0.938          0.000 partial forces
:FCA002:   2.ATOM                      -113.905        -58.530        -72.061 partial forces
       TOTAL FORCE WITH RESPECT TO THE GLOBAL COORDINATE SYSTEM:
:FGL001:   1.ATOM                 1.875461137     1.875461137     0.000000000 partial forces
:FGL002:   2.ATOM              -131.525688729  -124.292885009   -72.060935448 partial forces
 Flat Integration
 New Mode for Coulomb Integral
 Consistent 3/8+Simpson combinations
 Extension of core to zero
 LDM version in phi
 Fifth-order quadrature in outwin


            ---------
:ITE012: 12. ITERATION
            ---------

:NATO :    2 INDEPENDENT AND    9 TOTAL ATOMS IN UNITCELL
       SUBSTANCE: SiO2 for tests                                              

       LATTICE                      = H   
:POT  : POTENTIAL OPTION EX_LDA EC_LDA VX_LDA VC_LDA
:LAT  : LATTICE CONSTANTS=  9.26193  9.26193 10.21737
:VOL  : UNIT CELL VOLUME =     759.05354
       MODE OF CALCULATION IS       = RELA
       NON-SPINPOLARIZED CALCULATION
:IFFT  : FFT-parameters:   72   72   80 Factor: 2.00


   CONVERGENCE PARAMETER FOR PSEUDOCHARGE: NCON=  9
   MAXIMAL VALUE OF RMT(JATOM)*ABSK(NKK) : RK  =19.43469


:VKCOUL :  VK-COUL convergence: 0.342E-05
       ATOMNUMBER=  1 Si         VCOUL-ZERO = -0.14495E+01
:EFG001:                        EFG         =     0.76113   *10**21  V / m**2
                               V20  TOT/SRF=     0.65916     0.03076
                               V22  TOT/SRF=     0.17513     0.00406
                               V22M TOT/SRF=     0.18082    -0.00665
                               V21  TOT/SRF=     0.00000     0.00000
                               V21M TOT/SRF=     0.00000     0.00000

             -0.20544    0.18082    0.00000       -0.12884    0.00000    0.00000
              0.18082   -0.55570    0.00000        0.00000   -0.63229    0.00000
              0.00000    0.00000    0.76113        0.00000    0.00000    0.76113

         MAIN DIRECTIONS OF THE EFG   1.0000 -0.4236  0.0000
                                      0.4236  1.0000  0.0000
                                      0.0000  0.0000  1.0000
:ANG001:  ANGLE WITH OLD X-AXIS =        23.0

:ETA001:                         ASYMM. ETA =     0.66145


       ATOMNUMBER=  2 O          VCOUL-ZERO =  0.44587E-01
:EFG002:                        EFG         =     7.45696   *10**21  V / m**2
                               V20  TOT/SRF=     0.11432     0.02499
                               V22  TOT/SRF=     1.50461     0.56992
                               V22M TOT/SRF=    -3.17947    -1.25920
                               V21  TOT/SRF=    -4.05248    -1.54826
                               V21M TOT/SRF=     3.67049     1.35994

              1.43860   -3.17947   -4.05248        7.45696    0.00000    0.00000
             -3.17947   -1.57061    3.67049        0.00000   -2.96932    0.00000
             -4.05248    3.67049    0.13201        0.00000    0.00000   -4.48764

         MAIN DIRECTIONS OF THE EFG   1.0000  1.0000 -0.0170
                                     -0.7248  0.5489  1.0000
                                     -0.9164  0.6571 -0.8095
:ANG002:  ANGLE WITH OLD X-AXIS =        45.0

:ETA002:                         ASYMM. ETA =     0.20361


     HELLMANN-FEYNMAN-FORCE IN mRy/a.u. = |F|  Fx       Fy             Fz
:FHF001:   1.ATOM     21.859260113384      0.000000000000      0.000000000000     21.859260113384

     HELLMANN-FEYNMAN-FORCE IN mRy/a.u. = |F|  Fx       Fy             Fz
:FHF002:   2.ATOM    468.706276325833   -360.992363841073   -187.771802188066   -232.619511259714

:FIT001: LUSE= 13 SIGMA OF V-XC FIT FOR ATOM  1  0.4514950E-02
:FIT001: LUSE= 13 SIGMA OF V-XC FIT FOR ATOM  1  0.4514950E-02
:FIT002: LUSE= 13 SIGMA OF V-XC FIT FOR ATOM  2  0.4425877E-03
:FIT002: LUSE= 13 SIGMA OF V-XC FIT FOR ATOM  2  0.4425877E-03
:DEN  : DENSITY INTEGRAL  =         -1220.19091261   (Ry)
       ELS_POTENTIAL_AT Z=0 and Z=0.5:   0.05716  -0.10368
       ELS_POTENTIAL_AT Y=0 and Y=0.5:   0.00000   0.00000
:VZERO:v0,v0c,v0x  -0.66503   0.05716  -0.72219 v5,v5c,v5x  -0.77910  -0.10368  -0.67543
:VZERY:v0,v0c,v0x  -0.69956   0.00000  -0.69956 v5,v5c,v5x  -0.69956   0.00000  -0.69956
:VZERX:v0,v0c,v0x  -0.19187   0.21617  -0.40804 v5,v5c,v5x  -2.54074  -1.64673  -0.89401
:LMAX-WF:   10   Non-Spherical LMAX:   4

          ATOMIC SPHERE DEPENDENT PARAMETERS FOR ATOM  Si        
:e__0001: OVERALL ENERGY PARAMETER IS   -0.1262
          OVERALL BASIS SET ON ATOM IS LAPW
:E0_0001: E( 0)=   -0.1262
             APW+lo
:E1_0001: E( 1)=   -0.1262
             APW+lo

          ATOMIC SPHERE DEPENDENT PARAMETERS FOR ATOM  O         
:e__0002: OVERALL ENERGY PARAMETER IS   -0.1262
          OVERALL BASIS SET ON ATOM IS LAPW
:E0_0002: E( 0)=    0.2738
             APW+lo
:E0_0002: E( 0)=   -1.0241   E(BOTTOM)=   -2.359   E(TOP)=    0.310  1  2   233
             LOCAL ORBITAL
:E1_0002: E( 1)=   -0.1262
             APW+lo

       K=   0.00000   0.00000   0.00000            1
:RKM  : MATRIX SIZE  1625LOs:  42  RKM= 6.97  WEIGHT= 1.00  PGR:    
       EIGENVALUES ARE:
:EIG00001:      -1.3379915   -1.2212727   -1.2212727   -1.1709356   -1.1685326
:EIG00006:      -1.1685326   -0.5336868   -0.5336868   -0.3276739   -0.3249931
:EIG00011:      -0.3125459   -0.3125459   -0.1465639   -0.1465639   -0.1268179
:EIG00016:      -0.1080316   -0.0358267   -0.0358267   -0.0337158   -0.0005634
:EIG00021:      -0.0005634    0.0227730    0.0510758    0.0510758    0.4996418
:EIG00026:       0.7390272    0.7390272    0.7761212    0.7761212    0.8651753
:EIG00031:       0.9165681    0.9554400    0.9858180    0.9858181    1.0412107
:EIG00036:       1.0412107    1.0951036    1.1481616    1.1566894    1.1566894
:EIG00041:       1.1572615    1.1572615    1.2783309    1.2783309    1.3727351
:EIG00046:       1.4199169    1.4199169    1.5224773    1.5224773
 
       ********************************************************

:KPT   :      NUMBER OF K-POINTS:    94
       Insulator, EF-inconsistency corrected
:GAP (global)   :  0.425079 Ry =     5.783 eV (accurate value if proper k-mesh)
         Bandranges (emin - emax) and occupancy:
:BAN00014:  14   -0.164407   -0.122744  2.00000000
:BAN00015:  15   -0.140766   -0.105497  2.00000000
:BAN00016:  16   -0.108879   -0.076456  2.00000000
:BAN00017:  17   -0.085524   -0.035827  2.00000000
:BAN00018:  18   -0.065755   -0.035827  2.00000000
:BAN00019:  19   -0.060750   -0.000025  2.00000000
:BAN00020:  20   -0.039490    0.001938  2.00000000
:BAN00021:  21   -0.016167    0.009553  2.00000000
:BAN00022:  22    0.010209    0.058546  2.00000000
:BAN00023:  23    0.027641    0.065704  2.00000000
:BAN00024:  24    0.036688    0.074563  2.00000000
:BAN00025:  25    0.499642    0.728457  0.00000000
:BAN00026:  26    0.643137    0.765437  0.00000000
:BAN00027:  27    0.715169    0.780308  0.00000000
:BAN00028:  28    0.736905    0.815680  0.00000000
:BAN00029:  29    0.772339    0.832162  0.00000000
        Energy to separate low and high energystates:   -0.66542


:NOE  : NUMBER OF ELECTRONS          =   48.000

:FER  : F E R M I - ENERGY(TETRAH.M.)=   0.0745628820
:GMA  : POTENTIAL AND CHARGE CUT-OFF  12.00 Ry**.5

:POS001: ATOM   -1 X,Y,Z = 0.46913 0.46913 0.50000  MULT= 3  ZZ= 14.000  Si        

       LMMAX 25
       LM=   0 0  1 0  2 0  2 2 -2 2  3 0  3 2 -3 2  4 0  4 2 -4 2  4 4 -4 4  5 0  5 2 -5 2  5 4
        -5 4  6 0  6 2 -6 2  6 4 -6 4  6 6 -6 6

:CHA001: TOTAL VALENCE CHARGE INSIDE SPHERE   1 =   0.5839    (RMT=  1.4000 )
:PCS001: PARTIAL CHARGES SPHERE =  1 S,P,D,F,PX,PY,PZ,D-Z2,D-X2Y2,D-XY,D-XZ,D-YZ 
:QTL001: 0.2012 0.2663 0.1070 0.0081 0.0893 0.0905 0.0865 0.0129 0.0171 0.0237 0.0270 0.0262
        Q-s-low E-s-low   Q-p-low E-p-low   Q-d-low E-d-low   Q-f-low E-f-low
:EPL001:  0.0586 -1.2747    0.0503 -1.1902    0.0145 -1.1903    0.0016 -1.2393
        Q-s-hi  E-s-hi    Q-p-hi  E-p-hi    Q-d-hi  E-d-hi    Q-f-hi  E-f-hi 
:EPH001:  0.1426 -0.4621    0.2159 -0.2975    0.0924 -0.1405    0.0065 -0.1113

                      QXX         QXY         QYY         QZZ       UP TO R
:VZZ001:            -0.19772     0.19523    -0.54328     0.74101       1.400

:POS002: ATOM   -2 X,Y,Z = 0.14451 0.41337 0.61807  MULT= 6  ZZ=  8.000  O         

       LMMAX 49

:CHA002: TOTAL VALENCE CHARGE INSIDE SPHERE   2 =   5.4508    (RMT=  1.6200 )
:PCS002: PARTIAL CHARGES SPHERE =  2 S,P,D,F,PX,PY,PZ,D-Z2,D-X2Y2,D-XY,D-XZ,D-YZ 
:QTL002: 1.5731 3.8579 0.0150 0.0044 1.2803 1.2925 1.2850 0.0025 0.0033 0.0028 0.0033 0.0032
        Q-s-low E-s-low   Q-p-low E-p-low   Q-d-low E-d-low   Q-f-low E-f-low
:EPL002:  1.4936 -1.2136    0.0214 -1.2276    0.0042 -1.2260    0.0004 -1.2172
        Q-s-hi  E-s-hi    Q-p-hi  E-p-hi    Q-d-hi  E-d-hi    Q-f-hi  E-f-hi 
:EPH002:  0.0795 -0.2397    3.8364 -0.1410    0.0108 -0.2191    0.0040 -0.2106

                      QXX         QXY         QYY         QZZ       UP TO R
:VZZ002:             0.81932    -1.77459    -0.91959     0.10028       1.620

:CHA  : TOTAL VALENCE CHARGE INSIDE UNIT CELL =      48.000000

:SUM  : SUM OF EIGENVALUES =         -20.326178646


        1.ATOM      Si                    4 CORE STATES
       CORE-FORCE in mRy/a.u. = |F|      Fx             Fy             Fz
:FCO001:   1.ATOM     19.980917939328      0.000000000000      0.000000000000    -19.980917939328

:1S 001: 1S                -130.070316059 Ry
:2S 001: 2S                  -9.561244274 Ry
:2PP001: 2P*                 -6.422258559 Ry
:2P 001: 2P                  -6.374808610 Ry

        2.ATOM      O                     1 CORE STATES
       CORE-FORCE in mRy/a.u. = |F|      Fx             Fy             Fz
:FCO002:   2.ATOM    322.091937915352    247.323416783349    129.395659033815    160.720587990095

:1S 002: 1S                 -36.635994145 Ry
:CINT001 Core Integral Atom   1    9.922286
:CINT002 Core Integral Atom   2    2.003785

       DENSITY AT NUCLEUS
        JATOM        VALENCE       SEMI-CORE          CORE           TOTAL
:RTO001:   1        6.094086     1868.611085        0.000000     1874.705170
:RTO002:   2       14.495580      299.334720        0.000000      313.830300
     
       CHARGES OF NEW CHARGE DENSITY
:NTO   : INTERSTITIAL CHARGE =    13.754786
:NPC   : PW Pseudocharge     =    26.351229
:NTO001: CHARGE SPHERE  1    =    10.506144
:NTO002: CHARGE SPHERE  2    =     7.454570

:NEC01: NUCLEAR AND ELECTRONIC CHARGE     90.00000    90.00064
     
       CHARGES OF OLD CHARGE DENSITY
:OTO   : INTERSTITIAL CHARGE =    13.754161
:OPC   : PW Pseudocharge     =    26.349799
:OTO001: CHARGE SPHERE  1    =    10.506117
:OTO002: CHARGE SPHERE  2    =     7.454581

:NEC02: NUCLEAR AND ELECTRONIC CHARGE     90.00000    90.00000
     
       CONVERGENCE TEST
:DTO001: DIFFERENCE IN SPHERE  1 =  0.0002235
:DTO002: DIFFERENCE IN SPHERE  2 =  0.0000943

:DIS  :  CHARGE DISTANCE       ( 0.0002235 for atom    1 spin 1)      0.0001374
 PW Mixed is         2149
 
******************************************************
* MULTISECANT MIXING VER9 RELEASE 10.4.0              *
* Standard Mode with controls                        *
* Fixed density scale                                *
* Regularization       1.000E-04                     *
* Trust Upper Limit    5.000E+00                     *
* Max Number of Memory Steps    8                    *
******************************************************
 
:PWTMP   6.1772E+02  5.7600E+02  7.5905E+02
:PLANE:  PW TOTAL      8.1948 DISTAN   4.56E-04  5.57E-03 %
:CHARG:  CLM/ATOM     80.3761 DISTAN   3.46E-04  4.31E-04 %
 
Step History
        DMIX         DMIXT        Red     Pred      Trust     Lambda    MagRel    MagAbs     Beta
  4   5.2987E-02   5.2987E-02  8.76E-01  9.80E-01  3.31E-01  1.44E+00  5.23E-02  1.24E-01  9.68E-01
  5   1.3247E-01   4.3509E-02  8.00E-01  8.13E-01  3.77E-01  1.68E+00  8.81E-02  1.82E-01  1.00E+00
  6   2.7553E-01   1.1088E-01  6.98E-01  7.04E-01  5.65E-01  1.97E+00  1.53E-01  2.54E-01  1.00E+00
  7   3.5000E-01   2.3934E-01  5.04E-01  5.29E-01  1.01E+00  1.29E+00  3.59E-01  4.14E-01  1.00E+00
  8   3.5000E-01   3.5000E-01  1.14E-01  1.61E-01  2.71E+00  1.40E+00  9.68E-01  5.63E-01  1.00E+00
  9   2.3641E-01   2.3641E-01  6.04E-01  8.26E-01  8.00E+00  1.09E+00  3.54E-01  2.34E-02  1.00E+00
 10   3.5000E-01   3.5000E-01  1.26E-01  1.84E-01  1.07E+01  1.40E+00  9.08E-01  3.62E-02  1.00E+00
 11   3.1921E-01   3.1921E-01  2.38E-01  3.26E-01  1.42E+01  1.31E+00  7.58E-01  3.81E-03  1.00E+00
 12   1.9346E-01   1.9346E-01 -1.00E+00  8.69E-01  1.90E+01  1.00E+00  3.23E-01  3.87E-04  9.26E-01
:JACOBIANS    1.730E+00   2.402E+00
  
:NORMS:  1/Froebius, Min, Max, Used   0.8245E+00  0.7242E+00  0.9921E+00  0.8245E+00
:INFO :  Number of Memory Steps    8 Skipping    3
:INFO :  SLambda=    1.1686317935  Max    1.1686317935
:PREDicted Charge, CTotal, PW Trust    3.622E-05   1.533E-04   8.234E-05
:PREDicted DMix, Beta, BLim   8.0560E-01  2.1792E+00  1.2051E+00

Eigenvalues, unscaled except for SY+YY
   #     SY Real        SY Imag          SS             YY         SY+YY Real      SY+YY Imag
   1   2.974468E+00   0.000000E+00   2.873558E+00   4.639001E+00   8.065479E+00   0.000000E+00
   2   1.903755E+00   0.000000E+00   1.921112E+00   1.976329E+00   4.198097E+00   0.000000E+00
   3   5.744673E-01   0.000000E+00   3.987932E-01   8.279839E-01   1.531072E+00   0.000000E+00
   4   2.348568E-01   0.000000E+00   1.718332E-01   3.135922E-01   5.962847E-01   0.000000E+00
   5   1.396147E-01   0.000000E+00   6.841188E-02   2.356319E-01   4.113009E-01   0.000000E+00
   6   6.058907E-03   0.000000E+00   4.394499E-03   7.448608E-03   1.464170E-02   0.000000E+00
   7   1.893809E-06   0.000000E+00   2.765308E-06   1.039111E-05   4.867215E-06   0.000000E+00
   8   5.369613E-06   0.000000E+00   1.291766E-06   2.699629E-06   1.651520E-05   0.000000E+00
 
:INFO :  Singular value  8.099E+00 Weight  1.000E+00 Projection -5.622E-05
:INFO :  Singular value  4.191E+00 Weight  1.000E+00 Projection  8.116E-05
:INFO :  Singular value  1.530E+00 Weight  1.000E+00 Projection  3.839E-04
:INFO :  Singular value  5.963E-01 Weight  1.000E+00 Projection -1.234E-03
:INFO :  Singular value  4.106E-01 Weight  1.000E+00 Projection -3.015E-04
:INFO :  Singular value  1.464E-02 Weight  9.990E-01 Projection -1.528E-03
:INFO :  Singular value  1.657E-05 Weight  1.273E-03 Projection  1.322E-04
:INFO :  Singular value  4.852E-06 Weight  1.094E-04 Projection  2.305E-06
:RANK :  ACTIVE   6.00/8  =  75.00 % ; YY RANK   6.00/8  =  74.96 %
 
:BLIM :  VZERO Control Off
:TRUST:  Step 2.25E+01  Charge 9.28E-02 (e) CTO  3.95E-01 (e) PW  3.88E-01 (e)
:DIRM :  MEMORY  8/8  SCALE   1.000 RED  0.69 PRED  0.87 NEXT  0.42 
:TRAVE:  Charge 2.87E-03 (e) CTO  1.48E-02 (e) PW  1.58E-02 (e)
:DIRP :  |MSR1|= 3.711E-04 |PRATT|= 4.560E-04 ANGLE=   5.2 DEGREES
:DIRQ :  |MSR1|= 6.307E-04 |PRATT|= 6.929E-04 ANGLE=   7.1 DEGREES
:DIRT :  |MSR1|= 7.317E-04 |PRATT|= 8.295E-04 ANGLE=   7.2 DEGREES
:MIX  :   MSE1   REGULARIZATION:  4.64E-04 GREED: 0.32408  Newton 1.00  0.8821                
     
       CHARGES OF MIXED CHARGE DENSITY
:CTO   : INTERSTITIAL CHARGE =    13.754077
:CPC   : PW Pseudocharge     =    26.349927
:CTO001: CHARGE SPHERE  1    =    10.506136
:CTO002: CHARGE SPHERE  2    =     7.454586

:NEC03: NUCLEAR AND ELECTRONIC CHARGE     90.00000    90.00000

PW CHANGE     H    K    L             Current                    Change               Residue
:PTO001:      0    0    0  5.28342230E-02 0.00000000E+00  5.745E-08  0.000E+00  2.554E-07  0.000E+00
:PTO002:      0    0   -1 -5.07842359E-11 0.00000000E+00 -3.292E-13  0.000E+00 -3.758E-13  0.000E+00
:PTO003:     -1    0    0 -3.84634775E-02 0.00000000E+00 -1.440E-06  0.000E+00 -1.892E-06  0.000E+00
:PTO004:     -1    0   -1  4.43913596E-02-7.68880884E-02  8.068E-07 -1.397E-06  1.071E-06 -1.855E-06
:PTO005:     -1    0    1  2.66823495E-02 4.62151838E-02  6.763E-07  1.171E-06  8.928E-07  1.546E-06
:PTO006:      0    0   -2 -8.21857072E-11 0.00000000E+00 -1.367E-13  0.000E+00 -1.572E-13  0.000E+00
:PTO007:     -2    1    0 -1.56874427E-02-2.32519302E-02  1.016E-07 -1.650E-07  1.640E-07 -2.341E-07
:PTO008:     -1   -1    0 -1.56874427E-02 2.32519302E-02  1.016E-07  1.650E-07  1.640E-07  2.341E-07
:PTO009:     -1    0   -2  3.70789189E-02 6.42225746E-02  4.092E-07  7.087E-07  5.662E-07  9.806E-07
:PTO010:     -1    0    2  4.50947105E-04-7.81063335E-04  3.278E-07 -5.677E-07  4.751E-07 -8.228E-07
:PTO011:     -2    1   -1 -4.60199598E-02-2.39277907E-02 -3.825E-07 -7.216E-07 -5.992E-07 -9.641E-07
:PTO012:     -1   -1   -1  4.37320539E-02 2.78905598E-02  8.162E-07 -2.952E-08  1.135E-06  3.691E-08

:ENE  : ********** TOTAL ENERGY IN Ry =        -2632.96963767

       TOTAL FORCE IN mRy/a.u. = |F|     Fx             Fy             Fz     with/without FOR in case.in2
:FOR001:   1.ATOM          1.878          0.000          0.000          1.878 partial forces
:FOR002:   2.ATOM        146.621       -113.669        -58.376        -71.899 partial forces
       TOTAL FORCE WITH RESPECT TO GLOBAL CARTESIAN COORDINATES:
:FCA001:   1.ATOM                         1.627          0.939          0.000 partial forces
:FCA002:   2.ATOM                      -113.669        -58.376        -71.899 partial forces
       TOTAL FORCE WITH RESPECT TO THE GLOBAL COORDINATE SYSTEM:
:FGL001:   1.ATOM                 1.878342174     1.878342174     0.000000000 partial forces
:FGL002:   2.ATOM              -131.253594365  -124.002940337   -71.898923270 partial forces
