
:LABEL1: Calculations in /home/cmueller/wien/FZU/src/quartz/1500k
:LABEL2: on cv036 at Wed Jun 12 02:48:16 PM CEST 2024
:LABEL3: using WIEN2k_19.1 (Release 25/6/2019) in /home/cmueller/WIENROOT
:LABEL4: using the command: run_lapw
 Flat Integration
 New Mode for Coulomb Integral
 Consistent 3/8+Simpson combinations
 Extension of core to zero
 LDM version in phi
 Fifth-order quadrature in outwin


            ---------
:ITE001:  1. ITERATION
            ---------

:NATO :    2 INDEPENDENT AND    9 TOTAL ATOMS IN UNITCELL
       SUBSTANCE: SiO2 for tests                                              

       LATTICE                      = H   
:POT  : POTENTIAL OPTION EX_PBE EC_PBE VX_PBE VC_PBE
:LAT  : LATTICE CONSTANTS=  9.26193  9.26193 10.21737
:VOL  : UNIT CELL VOLUME =     759.05354
       MODE OF CALCULATION IS       = RELA
       NON-SPINPOLARIZED CALCULATION
:IFFT  : FFT-parameters:   72   72   80 Factor: 2.00


   CONVERGENCE PARAMETER FOR PSEUDOCHARGE: NCON=  9
   MAXIMAL VALUE OF RMT(JATOM)*ABSK(NKK) : RK  =19.43469


:VKCOUL :  VK-COUL convergence: 0.439E-05
       ATOMNUMBER=  1 Si         VCOUL-ZERO = -0.14366E+01
:EFG001:                        EFG         =     0.02023   *10**21  V / m**2
                               V20  TOT/SRF=    -0.01366    -0.01576
                               V22  TOT/SRF=     0.00026     0.00378
                               V22M TOT/SRF=    -0.01234    -0.02031
                               V21  TOT/SRF=     0.00000     0.00000
                               V21M TOT/SRF=     0.00000     0.00000

              0.00815   -0.01234    0.00000        0.02023    0.00000    0.00000
             -0.01234    0.00762    0.00000        0.00000   -0.00446    0.00000
              0.00000    0.00000   -0.01577        0.00000    0.00000   -0.01577

         MAIN DIRECTIONS OF THE EFG   1.0000  0.9788  0.0000
                                     -0.9788  1.0000  0.0000
                                      0.0000  0.0000  1.0000
:ANG001:  ANGLE WITH OLD X-AXIS =        44.4

:ETA001:                         ASYMM. ETA =     0.55936


       ATOMNUMBER=  2 O          VCOUL-ZERO = -0.80426E-01
:EFG002:                        EFG         =     2.34022   *10**21  V / m**2
                               V20  TOT/SRF=     0.01775     0.02253
                               V22  TOT/SRF=     0.46621     0.58167
                               V22M TOT/SRF=    -1.03110    -1.28760
                               V21  TOT/SRF=    -1.27074    -1.58634
                               V21M TOT/SRF=     1.11976     1.39844

              0.45596   -1.03110   -1.27074        2.34022    0.00000    0.00000
             -1.03110   -0.47646    1.11976        0.00000   -0.96512    0.00000
             -1.27074    1.11976    0.02049        0.00000    0.00000   -1.37510

         MAIN DIRECTIONS OF THE EFG   1.0000  1.0000  0.0171
                                     -0.7225  0.5266  1.0000
                                     -0.8966  0.6910 -0.7868
:ANG002:  ANGLE WITH OLD X-AXIS =        45.0

:ETA002:                         ASYMM. ETA =     0.17519


     HELLMANN-FEYNMAN-FORCE IN mRy/a.u. = |F|  Fx       Fy             Fz
:FHF001:   1.ATOM      0.660338428314      0.000000000000      0.000000000000     -0.660338428314

     HELLMANN-FEYNMAN-FORCE IN mRy/a.u. = |F|  Fx       Fy             Fz
:FHF002:   2.ATOM   1081.743219788848   -835.469666171216   -428.244727353585   -537.368852801085

:FIT001: LUSE= 13 SIGMA OF V-XC FIT FOR ATOM  1  0.7083896E-02
:FIT001: LUSE= 13 SIGMA OF V-XC FIT FOR ATOM  1  0.7083896E-02
:FIT002: LUSE= 13 SIGMA OF V-XC FIT FOR ATOM  2  0.1340515E-02
:FIT002: LUSE= 13 SIGMA OF V-XC FIT FOR ATOM  2  0.1340515E-02
:DEN  : DENSITY INTEGRAL  =         -1213.65209575   (Ry)
       ELS_POTENTIAL_AT Z=0 and Z=0.5:   0.04924  -0.09870
       ELS_POTENTIAL_AT Y=0 and Y=0.5:   0.00000   0.00000
:VZERO:v0,v0c,v0x  -0.68174   0.04924  -0.73098 v5,v5c,v5x  -0.78851  -0.09870  -0.68981
:VZERY:v0,v0c,v0x  -0.70684   0.00000  -0.70684 v5,v5c,v5x  -0.70684   0.00000  -0.70684
:VZERX:v0,v0c,v0x  -0.19278   0.24115  -0.43394 v5,v5c,v5x  -2.60401  -1.66125  -0.94276
:LMAX-WF:   10   Non-Spherical LMAX:   4

          ATOMIC SPHERE DEPENDENT PARAMETERS FOR ATOM  Si        
:e__0001: OVERALL ENERGY PARAMETER IS    0.3000
          OVERALL BASIS SET ON ATOM IS LAPW
:E0_0001: E( 0)=    0.3000
             APW+lo
:E1_0001: E( 1)=    0.3000
             APW+lo

          ATOMIC SPHERE DEPENDENT PARAMETERS FOR ATOM  O         
:e__0002: OVERALL ENERGY PARAMETER IS    0.3000
          OVERALL BASIS SET ON ATOM IS LAPW
:E0_0002: E( 0)=    0.7000
             APW+lo
:E0_0002: E( 0)=   -1.3125   E(BOTTOM)=   -2.596   E(TOP)=   -0.029  1  2   227
             LOCAL ORBITAL
:E1_0002: E( 1)=    0.3000
             APW+lo

       K=   0.00000   0.00000   0.00000            1
:RKM  : MATRIX SIZE  1625LOs:  42  RKM= 6.97  WEIGHT= 1.00  PGR:    
       EIGENVALUES ARE:
:EIG00001:      -1.5337335   -1.4411529   -1.4411529   -1.4032324   -1.4020544
:EIG00006:      -1.4020544   -0.6733388   -0.6733388   -0.4965059   -0.4916903
:EIG00011:      -0.4798361   -0.4798361   -0.3064939   -0.3064939   -0.2950819
:EIG00016:      -0.2783848   -0.2312958   -0.2312958   -0.2287494   -0.1966308
:EIG00021:      -0.1966308   -0.1787817   -0.1550107   -0.1550107    0.4492100
:EIG00026:       0.7232531    0.7232531    0.7386762    0.7386762    0.8434397
:EIG00031:       0.8529819    0.9179382    0.9299848    0.9299849    0.9516003
:EIG00036:       0.9516004    1.0301086    1.1219674    1.1340356    1.1340356
:EIG00041:       1.1492873    1.1492873    1.2637802    1.2637802    1.3567079
:EIG00046:       1.4031372    1.4031372    1.5191633    1.5191633    1.6021189
 
:EIG00051:       1.6103445    1.6103445    1.6767738    1.8027086    1.8027086
:EIG00056:       1.8145228    1.8885771    1.9014355    1.9014355    1.9311295
:EIG00061:       1.9986548    1.9986548
       ********************************************************

:KPT   :      NUMBER OF K-POINTS:    94
       Insulator, EF-inconsistency corrected
:GAP (global)   :  0.589871 Ry =     8.026 eV (accurate value if proper k-mesh)
         Bandranges (emin - emax) and occupancy:
:BAN00014:  14   -0.319485   -0.291286  2.00000000
:BAN00015:  15   -0.298144   -0.280148  2.00000000
:BAN00016:  16   -0.281269   -0.255186  2.00000000
:BAN00017:  17   -0.264937   -0.231296  2.00000000
:BAN00018:  18   -0.249018   -0.226494  2.00000000
:BAN00019:  19   -0.246308   -0.198169  2.00000000
:BAN00020:  20   -0.227180   -0.195980  2.00000000
:BAN00021:  21   -0.208875   -0.188640  2.00000000
:BAN00022:  22   -0.189077   -0.152528  2.00000000
:BAN00023:  23   -0.176004   -0.146506  2.00000000
:BAN00024:  24   -0.167259   -0.140661  2.00000000
:BAN00025:  25    0.449210    0.653413  0.00000000
:BAN00026:  26    0.573090    0.723253  0.00000000
:BAN00027:  27    0.691184    0.744990  0.00000000
:BAN00028:  28    0.732346    0.785103  0.00000000
:BAN00029:  29    0.738676    0.800058  0.00000000
        Energy to separate low and high energystates:   -0.78952


:NOE  : NUMBER OF ELECTRONS          =   48.000

:FER  : F E R M I - ENERGY(TETRAH.M.)=  -0.1406610888
:GMA  : POTENTIAL AND CHARGE CUT-OFF  12.00 Ry**.5

:POS001: ATOM   -1 X,Y,Z = 0.46913 0.46913 0.50000  MULT= 3  ZZ= 14.000  Si        

       LMMAX 25
       LM=   0 0  1 0  2 0  2 2 -2 2  3 0  3 2 -3 2  4 0  4 2 -4 2  4 4 -4 4  5 0  5 2 -5 2  5 4
        -5 4  6 0  6 2 -6 2  6 4 -6 4  6 6 -6 6

:CHA001: TOTAL VALENCE CHARGE INSIDE SPHERE   1 =   0.4683    (RMT=  1.4000 )
:PCS001: PARTIAL CHARGES SPHERE =  1 S,P,D,F,PX,PY,PZ,D-Z2,D-X2Y2,D-XY,D-XZ,D-YZ 
:QTL001: 0.1631 0.2089 0.0866 0.0081 0.0703 0.0707 0.0679 0.0096 0.0134 0.0193 0.0225 0.0219
        Q-s-low E-s-low   Q-p-low E-p-low   Q-d-low E-d-low   Q-f-low E-f-low
:EPL001:  0.0426 -1.4842    0.0400 -1.4191    0.0132 -1.4190    0.0017 -1.4569
        Q-s-hi  E-s-hi    Q-p-hi  E-p-hi    Q-d-hi  E-d-hi    Q-f-hi  E-f-hi 
:EPH001:  0.1205 -0.6142    0.1690 -0.4687    0.0734 -0.3427    0.0064 -0.3281

                      QXX         QXY         QYY         QZZ       UP TO R
:VZZ001:            -0.21895     0.19225    -0.34951     0.56846       1.400

:POS002: ATOM   -2 X,Y,Z = 0.14451 0.41337 0.61807  MULT= 6  ZZ=  8.000  O         

       LMMAX 49

:CHA002: TOTAL VALENCE CHARGE INSIDE SPHERE   2 =   5.8956    (RMT=  1.6200 )
:PCS002: PARTIAL CHARGES SPHERE =  2 S,P,D,F,PX,PY,PZ,D-Z2,D-X2Y2,D-XY,D-XZ,D-YZ 
:QTL002: 1.6326 4.2473 0.0117 0.0037 1.4066 1.4260 1.4146 0.0019 0.0026 0.0021 0.0025 0.0026
        Q-s-low E-s-low   Q-p-low E-p-low   Q-d-low E-d-low   Q-f-low E-f-low
:EPL002:  1.5782 -1.4366    0.0179 -1.4457    0.0035 -1.4453    0.0003 -1.4392
        Q-s-hi  E-s-hi    Q-p-hi  E-p-hi    Q-d-hi  E-d-hi    Q-f-hi  E-f-hi 
:EPH002:  0.0543 -0.3922    4.2294 -0.3245    0.0082 -0.4097    0.0034 -0.3893

                      QXX         QXY         QYY         QZZ       UP TO R
:VZZ002:             1.25737    -2.79218    -1.38035     0.12298       1.620

:CHA  : TOTAL VALENCE CHARGE INSIDE UNIT CELL =      48.000000

:SUM  : SUM OF EIGENVALUES =         -29.385396961


        1.ATOM      Si                    4 CORE STATES
       CORE-FORCE in mRy/a.u. = |F|      Fx             Fy             Fz
:FCO001:   1.ATOM      1.783675543869      0.000000000000      0.000000000000     -1.783675543869

:1S 001: 1S                -130.525094101 Ry
:2S 001: 2S                  -9.542215991 Ry
:2PP001: 2P*                 -6.344054225 Ry
:2P 001: 2P                  -6.296687983 Ry

        2.ATOM      O                     1 CORE STATES
       CORE-FORCE in mRy/a.u. = |F|      Fx             Fy             Fz
:FCO002:   2.ATOM    276.523919606015    213.560191266678    109.476952742167    137.376561460472

:1S 002: 1S                 -37.323263231 Ry
:CINT001 Core Integral Atom   1    9.921255
:CINT002 Core Integral Atom   2    2.003890

       DENSITY AT NUCLEUS
        JATOM        VALENCE       SEMI-CORE          CORE           TOTAL
:RTO001:   1        4.830668     1885.991394        0.000000     1890.822061
:RTO002:   2       15.670298      303.971913        0.000000      319.642211
     
       CHARGES OF NEW CHARGE DENSITY
:NTO   : INTERSTITIAL CHARGE =    11.434840
:NPC   : PW Pseudocharge     =    27.022004
:NTO001: CHARGE SPHERE  1    =    10.389533
:NTO002: CHARGE SPHERE  2    =     7.899524

:NEC01: NUCLEAR AND ELECTRONIC CHARGE     90.00000    90.00058
     
       CHARGES OF OLD CHARGE DENSITY
:OTO   : INTERSTITIAL CHARGE =    15.689680
:OPC   : PW Pseudocharge     =    23.640838
:OTO001: CHARGE SPHERE  1    =    10.610239
:OTO002: CHARGE SPHERE  2    =     7.080276

:NEC02: NUCLEAR AND ELECTRONIC CHARGE     90.00000    90.00205
     
       CONVERGENCE TEST
:DTO001: DIFFERENCE IN SPHERE  1 =  0.3177863
:DTO002: DIFFERENCE IN SPHERE  2 =  0.9569999

:DIS  :  CHARGE DISTANCE       ( 0.9569999 for atom    2 spin 1)      0.7439287
 PW Mixed is         2149
 
******************************************************
* MULTISECANT MIXING VER9 RELEASE 10.4.0              *
* Standard Mode with controls                        *
* Fixed density scale                                *
* Regularization       1.000E-04                     *
* Trust Upper Limit    5.000E+00                     *
* Max Number of Memory Steps    8                    *
******************************************************
 
:PWTMP   6.1772E+02  5.7600E+02  7.5905E+02
:PLANE:  PW TOTAL      7.1397 DISTAN   2.36E+00  3.31E+01 %
:CHARG:  CLM/ATOM     80.8997 DISTAN   1.23E+00  1.52E+00 %
 
Step History
        DMIX         DMIXT        Red     Pred      Trust     Lambda    MagRel    MagAbs     Beta
  1   3.5000E-02   3.5000E-02 -1.00E+00  1.00E+00 -1.00E+01  1.00E+00  3.50E-02  3.50E-02  1.00E+00
:INFO :  Note, Pratt in use
:TRUST:  Step 5.25E-02  Charge 7.50E-02 (e) CTO  2.69E-01 (e) PW  3.77E-01 (e)
:DIRM :  MEMORY  0/ 8 SCALE   1.000
Performing Pseudo Compensation
Final Pseudo Compensation Rescaling     9.99810E-01
:MIX  :   PRATT  REGULARIZATION:  1.00E-04 GREED: 0.03500                  
     
       CHARGES OF MIXED CHARGE DENSITY
:CTO   : INTERSTITIAL CHARGE =    15.538759
:CPC   : PW Pseudocharge     =    25.867519
:CTO001: CHARGE SPHERE  1    =    10.602514
:CTO002: CHARGE SPHERE  2    =     7.108950

:NEC03: NUCLEAR AND ELECTRONIC CHARGE     90.00000    90.00000

PW CHANGE     H    K    L             Current                    Change               Residue
:PTO001:      0    0    0  5.45498774E-02 0.00000000E+00  2.741E-03  0.000E+00 -1.147E-03  0.000E+00
:PTO002:      0    0   -1 -7.90180214E-10-8.32754586E-20  2.681E-11 -8.328E-20  7.660E-10  0.000E+00
:PTO003:     -1    0    0 -3.92157469E-02 0.00000000E+00 -4.210E-04  0.000E+00  1.931E-03  0.000E+00
:PTO004:     -1    0   -1  4.40685026E-02-7.63288833E-02  1.453E-03 -2.516E-03  1.418E-03 -2.456E-03
:PTO005:     -1    0    1  2.65813082E-02 4.60401754E-02  3.524E-04  6.104E-04 -9.245E-06 -1.601E-05
:PTO006:      0    0   -2 -3.63891296E-10 1.49593270E-19 -3.137E-11  1.496E-19  2.510E-10  0.000E+00
:PTO007:     -2    1    0 -1.55789315E-02-2.17785739E-02 -1.012E-03 -4.922E-03 -1.721E-03 -8.289E-03
:PTO008:     -1   -1    0 -1.55789315E-02 2.17785739E-02 -1.012E-03  4.922E-03 -1.721E-03  8.289E-03
:PTO009:     -1    0   -2  3.48002609E-02 6.02758223E-02  8.663E-03  1.500E-02  1.435E-02  2.485E-02
:PTO010:     -1    0    2 -2.92318742E-04 5.06309956E-04  3.316E-03 -5.743E-03  4.915E-03 -8.513E-03
:PTO011:     -2    1   -1 -4.28041649E-02-2.22246058E-02 -1.011E-02 -9.008E-03 -1.735E-02 -1.388E-02
:PTO012:     -1   -1   -1  4.06491550E-02 2.59571919E-02  1.285E-02  4.248E-03  2.070E-02  8.089E-03

:ENE  : ********** TOTAL ENERGY IN Ry =        -2644.94509318

       TOTAL FORCE IN mRy/a.u. = |F|     Fx             Fy             Fz     with/without FOR in case.in2
:FOR001:   1.ATOM          2.444          0.000          0.000         -2.444 partial forces
:FOR002:   2.ATOM        805.219       -621.909       -318.768       -399.992 partial forces
       TOTAL FORCE WITH RESPECT TO GLOBAL CARTESIAN COORDINATES:
:FCA001:   1.ATOM                        -2.117         -1.222          0.000 partial forces
:FCA002:   2.ATOM                      -621.909       -318.768       -399.992 partial forces
       TOTAL FORCE WITH RESPECT TO THE GLOBAL COORDINATE SYSTEM:
:FGL001:   1.ATOM                -2.444013972    -2.444013972     0.000000000 partial forces
:FGL002:   2.ATOM              -718.119205495  -677.827377359  -399.992291341 partial forces
 Flat Integration
 New Mode for Coulomb Integral
 Consistent 3/8+Simpson combinations
 Extension of core to zero
 LDM version in phi
 Fifth-order quadrature in outwin


            ---------
:ITE002:  2. ITERATION
            ---------

:NATO :    2 INDEPENDENT AND    9 TOTAL ATOMS IN UNITCELL
       SUBSTANCE: SiO2 for tests                                              

       LATTICE                      = H   
:POT  : POTENTIAL OPTION EX_PBE EC_PBE VX_PBE VC_PBE
:LAT  : LATTICE CONSTANTS=  9.26193  9.26193 10.21737
:VOL  : UNIT CELL VOLUME =     759.05354
       MODE OF CALCULATION IS       = RELA
       NON-SPINPOLARIZED CALCULATION
:IFFT  : FFT-parameters:   72   72   80 Factor: 2.00


   CONVERGENCE PARAMETER FOR PSEUDOCHARGE: NCON=  9
   MAXIMAL VALUE OF RMT(JATOM)*ABSK(NKK) : RK  =19.43469


:VKCOUL :  VK-COUL convergence: 0.349E-05
       ATOMNUMBER=  1 Si         VCOUL-ZERO = -0.14345E+01
:EFG001:                        EFG         =    -0.00754   *10**21  V / m**2
                               V20  TOT/SRF=     0.00330    -0.01556
                               V22  TOT/SRF=     0.00175     0.00286
                               V22M TOT/SRF=    -0.00536    -0.01952
                               V21  TOT/SRF=     0.00000     0.00000
                               V21M TOT/SRF=     0.00000     0.00000

             -0.00016   -0.00536    0.00000        0.00373    0.00000    0.00000
             -0.00536   -0.00365    0.00000        0.00000   -0.00754    0.00000
              0.00000    0.00000    0.00381        0.00000    0.00000    0.00381

         MAIN DIRECTIONS OF THE EFG   1.0000  0.7261  0.0000
                                     -0.7261  1.0000  0.0000
                                      0.0000  0.0000  1.0000
:ANG001:  ANGLE WITH OLD X-AXIS =        36.0

:ETA001:                         ASYMM. ETA =     0.01023


       ATOMNUMBER=  2 O          VCOUL-ZERO = -0.67619E-01
:EFG002:                        EFG         =     2.60460   *10**21  V / m**2
                               V20  TOT/SRF=     0.02198     0.02280
                               V22  TOT/SRF=     0.51977     0.58293
                               V22M TOT/SRF=    -1.14425    -1.28935
                               V21  TOT/SRF=    -1.41362    -1.58829
                               V21M TOT/SRF=     1.25051     1.39987

              0.50708   -1.14425   -1.41362        2.60460    0.00000    0.00000
             -1.14425   -0.53246    1.25051        0.00000   -1.06971    0.00000
             -1.41362    1.25051    0.02538        0.00000    0.00000   -1.53489

         MAIN DIRECTIONS OF THE EFG   1.0000  1.0000  0.0148
                                     -0.7230  0.5277  1.0000
                                     -0.8986  0.6883 -0.7881
:ANG002:  ANGLE WITH OLD X-AXIS =        45.0

:ETA002:                         ASYMM. ETA =     0.17860


     HELLMANN-FEYNMAN-FORCE IN mRy/a.u. = |F|  Fx       Fy             Fz
:FHF001:   1.ATOM      2.491810826888      0.000000000000      0.000000000000     -2.491810826888

     HELLMANN-FEYNMAN-FORCE IN mRy/a.u. = |F|  Fx       Fy             Fz
:FHF002:   2.ATOM   1066.196243751496   -822.867440927546   -424.120205664549   -528.947687392819

:FIT001: LUSE= 13 SIGMA OF V-XC FIT FOR ATOM  1  0.7524950E-02
:FIT001: LUSE= 13 SIGMA OF V-XC FIT FOR ATOM  1  0.7524950E-02
:FIT002: LUSE= 13 SIGMA OF V-XC FIT FOR ATOM  2  0.1302217E-02
:FIT002: LUSE= 13 SIGMA OF V-XC FIT FOR ATOM  2  0.1302217E-02
:DEN  : DENSITY INTEGRAL  =         -1215.13490678   (Ry)
       ELS_POTENTIAL_AT Z=0 and Z=0.5:   0.04459  -0.08848
       ELS_POTENTIAL_AT Y=0 and Y=0.5:   0.00000   0.00000
:VZERO:v0,v0c,v0x  -0.69404   0.04459  -0.73863 v5,v5c,v5x  -0.76526  -0.08848  -0.67678
:VZERY:v0,v0c,v0x  -0.70670   0.00000  -0.70670 v5,v5c,v5x  -0.70670   0.00000  -0.70670
:VZERX:v0,v0c,v0x  -0.13511   0.26832  -0.40343 v5,v5c,v5x  -2.54919  -1.63690  -0.91229
:LMAX-WF:   10   Non-Spherical LMAX:   4

          ATOMIC SPHERE DEPENDENT PARAMETERS FOR ATOM  Si        
:e__0001: OVERALL ENERGY PARAMETER IS    0.1000
          OVERALL BASIS SET ON ATOM IS LAPW
:E0_0001: E( 0)=    0.1000
             APW+lo
:E1_0001: E( 1)=    0.1000
             APW+lo

          ATOMIC SPHERE DEPENDENT PARAMETERS FOR ATOM  O         
:e__0002: OVERALL ENERGY PARAMETER IS    0.1000
          OVERALL BASIS SET ON ATOM IS LAPW
:E0_0002: E( 0)=    0.5000
             APW+lo
:E0_0002: E( 0)=   -1.2840   E(BOTTOM)=   -2.572   E(TOP)=    0.004  1  2   233
             LOCAL ORBITAL
:E1_0002: E( 1)=    0.1000
             APW+lo

       K=   0.00000   0.00000   0.00000            1
:RKM  : MATRIX SIZE  1625LOs:  42  RKM= 6.97  WEIGHT= 1.00  PGR:    
       EIGENVALUES ARE:
:EIG00001:      -1.5114709   -1.4171234   -1.4171234   -1.3783389   -1.3770500
:EIG00006:      -1.3770500   -0.6547212   -0.6547212   -0.4744239   -0.4701960
:EIG00011:      -0.4580383   -0.4580383   -0.2848574   -0.2848574   -0.2728043
:EIG00016:      -0.2559535   -0.2070157   -0.2070157   -0.2046276   -0.1720145
:EIG00021:      -0.1720145   -0.1537961   -0.1295853   -0.1295853    0.4601061
:EIG00026:       0.7315635    0.7315635    0.7482349    0.7482349    0.8561538
:EIG00031:       0.8606452    0.9281275    0.9426382    0.9426382    0.9651452
:EIG00036:       0.9651452    1.0422603    1.1326041    1.1433049    1.1433049
:EIG00041:       1.1576115    1.1576115    1.2728847    1.2728847    1.3655565
:EIG00046:       1.4127591    1.4127591    1.5274854    1.5274854    1.6083272
 
:EIG00051:       1.6182035    1.6182035    1.6851217
       ********************************************************

:KPT   :      NUMBER OF K-POINTS:    94
       Insulator, EF-inconsistency corrected
:GAP (global)   :  0.574697 Ry =     7.819 eV (accurate value if proper k-mesh)
         Bandranges (emin - emax) and occupancy:
:BAN00014:  14   -0.298413   -0.268967  2.00000000
:BAN00015:  15   -0.276648   -0.257457  2.00000000
:BAN00016:  16   -0.258666   -0.231791  2.00000000
:BAN00017:  17   -0.241862   -0.207016  2.00000000
:BAN00018:  18   -0.225638   -0.202565  2.00000000
:BAN00019:  19   -0.222948   -0.173503  2.00000000
:BAN00020:  20   -0.203347   -0.171367  2.00000000
:BAN00021:  21   -0.184533   -0.163864  2.00000000
:BAN00022:  22   -0.164233   -0.126801  2.00000000
:BAN00023:  23   -0.150935   -0.120605  2.00000000
:BAN00024:  24   -0.142068   -0.114591  2.00000000
:BAN00025:  25    0.460106    0.665298  0.00000000
:BAN00026:  26    0.585697    0.731563  0.00000000
:BAN00027:  27    0.703160    0.754601  0.00000000
:BAN00028:  28    0.740069    0.794974  0.00000000
:BAN00029:  29    0.748235    0.809949  0.00000000
        Energy to separate low and high energystates:   -0.77228


:NOE  : NUMBER OF ELECTRONS          =   48.000

:FER  : F E R M I - ENERGY(TETRAH.M.)=  -0.1145913104
:GMA  : POTENTIAL AND CHARGE CUT-OFF  12.00 Ry**.5

:POS001: ATOM   -1 X,Y,Z = 0.46913 0.46913 0.50000  MULT= 3  ZZ= 14.000  Si        

       LMMAX 25
       LM=   0 0  1 0  2 0  2 2 -2 2  3 0  3 2 -3 2  4 0  4 2 -4 2  4 4 -4 4  5 0  5 2 -5 2  5 4
        -5 4  6 0  6 2 -6 2  6 4 -6 4  6 6 -6 6

:CHA001: TOTAL VALENCE CHARGE INSIDE SPHERE   1 =   0.4783    (RMT=  1.4000 )
:PCS001: PARTIAL CHARGES SPHERE =  1 S,P,D,F,PX,PY,PZ,D-Z2,D-X2Y2,D-XY,D-XZ,D-YZ 
:QTL001: 0.1666 0.2138 0.0882 0.0081 0.0719 0.0724 0.0695 0.0098 0.0137 0.0197 0.0228 0.0222
        Q-s-low E-s-low   Q-p-low E-p-low   Q-d-low E-d-low   Q-f-low E-f-low
:EPL001:  0.0437 -1.4609    0.0408 -1.3944    0.0133 -1.3944    0.0017 -1.4330
        Q-s-hi  E-s-hi    Q-p-hi  E-p-hi    Q-d-hi  E-d-hi    Q-f-hi  E-f-hi 
:EPH001:  0.1228 -0.5944    0.1730 -0.4466    0.0750 -0.3178    0.0065 -0.3020

                      QXX         QXY         QYY         QZZ       UP TO R
:VZZ001:            -0.22120     0.19311    -0.36951     0.59071       1.400

:POS002: ATOM   -2 X,Y,Z = 0.14451 0.41337 0.61807  MULT= 6  ZZ=  8.000  O         

       LMMAX 49

:CHA002: TOTAL VALENCE CHARGE INSIDE SPHERE   2 =   5.8586    (RMT=  1.6200 )
:PCS002: PARTIAL CHARGES SPHERE =  2 S,P,D,F,PX,PY,PZ,D-Z2,D-X2Y2,D-XY,D-XZ,D-YZ 
:QTL002: 1.6286 4.2139 0.0120 0.0037 1.3956 1.4147 1.4035 0.0019 0.0027 0.0021 0.0026 0.0027
        Q-s-low E-s-low   Q-p-low E-p-low   Q-d-low E-d-low   Q-f-low E-f-low
:EPL002:  1.5723 -1.4124    0.0182 -1.4218    0.0036 -1.4213    0.0003 -1.4151
        Q-s-hi  E-s-hi    Q-p-hi  E-p-hi    Q-d-hi  E-d-hi    Q-f-hi  E-f-hi 
:EPH002:  0.0562 -0.3717    4.1957 -0.3013    0.0084 -0.3862    0.0034 -0.3665

                      QXX         QXY         QYY         QZZ       UP TO R
:VZZ002:             1.21185    -2.68193    -1.33455     0.12270       1.620

:CHA  : TOTAL VALENCE CHARGE INSIDE UNIT CELL =      48.000000

:SUM  : SUM OF EIGENVALUES =         -28.275876758


        1.ATOM      Si                    4 CORE STATES
       CORE-FORCE in mRy/a.u. = |F|      Fx             Fy             Fz
:FCO001:   1.ATOM      0.444991032737      0.000000000000      0.000000000000     -0.444991032737

:1S 001: 1S                -130.531922166 Ry
:2S 001: 2S                  -9.545141635 Ry
:2PP001: 2P*                 -6.347211447 Ry
:2P 001: 2P                  -6.299827359 Ry

        2.ATOM      O                     1 CORE STATES
       CORE-FORCE in mRy/a.u. = |F|      Fx             Fy             Fz
:FCO002:   2.ATOM    280.829401038166    216.662194927591    111.739378855625    139.416487509810

:1S 002: 1S                 -37.273205112 Ry
:CINT001 Core Integral Atom   1    9.921473
:CINT002 Core Integral Atom   2    2.003877

       DENSITY AT NUCLEUS
        JATOM        VALENCE       SEMI-CORE          CORE           TOTAL
:RTO001:   1        4.956855     1886.033454        0.000000     1890.990309
:RTO002:   2       15.571695      303.953633        0.000000      319.525328
     
       CHARGES OF NEW CHARGE DENSITY
:NTO   : INTERSTITIAL CHARGE =    11.626608
:NPC   : PW Pseudocharge     =    27.040243
:NTO001: CHARGE SPHERE  1    =    10.399738
:NTO002: CHARGE SPHERE  2    =     7.862461

:NEC01: NUCLEAR AND ELECTRONIC CHARGE     90.00000    90.00059
     
       CHARGES OF OLD CHARGE DENSITY
:OTO   : INTERSTITIAL CHARGE =    15.538759
:OPC   : PW Pseudocharge     =    25.867519
:OTO001: CHARGE SPHERE  1    =    10.602514
:OTO002: CHARGE SPHERE  2    =     7.108950

:NEC02: NUCLEAR AND ELECTRONIC CHARGE     90.00000    90.00000
     
       CONVERGENCE TEST
:DTO001: DIFFERENCE IN SPHERE  1 =  0.2897081
:DTO002: DIFFERENCE IN SPHERE  2 =  0.8830630

:DIS  :  CHARGE DISTANCE       ( 0.8830630 for atom    2 spin 1)      0.6852781
 PW Mixed is         2149
 
******************************************************
* MULTISECANT MIXING VER9 RELEASE 10.4.0              *
* Standard Mode with controls                        *
* Fixed density scale                                *
* Regularization       1.000E-04                     *
* Trust Upper Limit    5.000E+00                     *
* Max Number of Memory Steps    8                    *
******************************************************
 
:PWTMP   6.1772E+02  5.7600E+02  7.5905E+02
:PLANE:  PW TOTAL      8.1601 DISTAN   1.00E+00  1.23E+01 %
:CHARG:  CLM/ATOM     80.8981 DISTAN   1.13E+00  1.40E+00 %
 
Step History
        DMIX         DMIXT        Red     Pred      Trust     Lambda    MagRel    MagAbs     Beta
  1   3.5000E-02   3.5000E-02 -1.00E+00  1.00E+00 -1.00E+01  1.00E+00  3.50E-02  3.50E-02  1.00E+00
  2   3.5000E-02   3.5000E-02 -1.00E+00  1.00E+00 -1.00E+01  1.00E+00  3.50E-02  1.19E-01  1.00E+00
:JACOBIANS    4.889E-01   2.719E-03
  
:TRUST:  Step 5.98E-02  Charge 7.50E-02 (e) CTO  2.69E-01 (e) PW  3.77E-01 (e)
:DIRM :  MEMORY  1/ 8 SCALE   1.000
:MIX  :   PRATT  REGULARIZATION:  1.00E-04 GREED: 0.05982  Expand 1.71  0.0598                
     
       CHARGES OF MIXED CHARGE DENSITY
:CTO   : INTERSTITIAL CHARGE =    15.477875
:CPC   : PW Pseudocharge     =    26.779440
:CTO001: CHARGE SPHERE  1    =    10.599355
:CTO002: CHARGE SPHERE  2    =     7.120677

:NEC03: NUCLEAR AND ELECTRONIC CHARGE     90.00000    90.00000

PW CHANGE     H    K    L             Current                    Change               Residue
:PTO001:      0    0    0  5.56710604E-02 0.00000000E+00  1.121E-03  0.000E+00 -3.612E-03  0.000E+00
:PTO002:      0    0   -1 -7.79215301E-10 0.00000000E+00  1.096E-11  0.000E+00  7.393E-10  0.000E+00
:PTO003:     -1    0    0 -3.93879359E-02 0.00000000E+00 -1.722E-04  0.000E+00  2.128E-03  0.000E+00
:PTO004:     -1    0   -1  4.46626223E-02-7.73579292E-02  5.941E-04 -1.029E-03  1.020E-04 -1.767E-04
:PTO005:     -1    0    1  2.67254287E-02 4.62897993E-02  1.441E-04  2.496E-04 -2.579E-04 -4.467E-04
:PTO006:      0    0   -2 -3.76721028E-10 0.00000000E+00 -1.283E-11  0.000E+00  2.825E-10  0.000E+00
:PTO007:     -2    1    0 -1.59927299E-02-2.37917470E-02 -4.138E-04 -2.013E-03 -6.972E-04 -3.302E-03
:PTO008:     -1   -1    0 -1.59927299E-02 2.37917470E-02 -4.138E-04  2.013E-03 -6.972E-04  3.302E-03
:PTO009:     -1    0   -2  3.83432370E-02 6.64124378E-02  3.543E-03  6.137E-03  5.559E-03  9.629E-03
:PTO010:     -1    0    2  1.06364183E-03-1.84228178E-03  1.356E-03 -2.349E-03  1.561E-03 -2.703E-03
:PTO011:     -2    1   -1 -4.69373141E-02-2.59085821E-02 -4.133E-03 -3.684E-03 -7.112E-03 -4.742E-03
:PTO012:     -1   -1   -1  4.59061467E-02 2.76946163E-02  5.257E-03  1.737E-03  7.662E-03  3.788E-03

:ENE  : ********** TOTAL ENERGY IN Ry =        -2644.83282468

       TOTAL FORCE IN mRy/a.u. = |F|     Fx             Fy             Fz     with/without FOR in case.in2
:FOR001:   1.ATOM          2.937          0.000          0.000         -2.937 partial forces
:FOR002:   2.ATOM        785.367       -606.205       -312.381       -389.531 partial forces
       TOTAL FORCE WITH RESPECT TO GLOBAL CARTESIAN COORDINATES:
:FCA001:   1.ATOM                        -2.543         -1.468          0.000 partial forces
:FCA002:   2.ATOM                      -606.205       -312.381       -389.531 partial forces
       TOTAL FORCE WITH RESPECT TO THE GLOBAL COORDINATE SYSTEM:
:FGL001:   1.ATOM                -2.936801860    -2.936801860     0.000000000 partial forces
:FGL002:   2.ATOM              -699.985523924  -662.373588771  -389.531199883 partial forces
 Flat Integration
 New Mode for Coulomb Integral
 Consistent 3/8+Simpson combinations
 Extension of core to zero
 LDM version in phi
 Fifth-order quadrature in outwin


            ---------
:ITE003:  3. ITERATION
            ---------

:NATO :    2 INDEPENDENT AND    9 TOTAL ATOMS IN UNITCELL
       SUBSTANCE: SiO2 for tests                                              

       LATTICE                      = H   
:POT  : POTENTIAL OPTION EX_PBE EC_PBE VX_PBE VC_PBE
:LAT  : LATTICE CONSTANTS=  9.26193  9.26193 10.21737
:VOL  : UNIT CELL VOLUME =     759.05354
       MODE OF CALCULATION IS       = RELA
       NON-SPINPOLARIZED CALCULATION
:IFFT  : FFT-parameters:   72   72   80 Factor: 2.00


   CONVERGENCE PARAMETER FOR PSEUDOCHARGE: NCON=  9
   MAXIMAL VALUE OF RMT(JATOM)*ABSK(NKK) : RK  =19.43469


:VKCOUL :  VK-COUL convergence: 0.340E-05
       ATOMNUMBER=  1 Si         VCOUL-ZERO = -0.14337E+01
:EFG001:                        EFG         =     0.01182   *10**21  V / m**2
                               V20  TOT/SRF=     0.01024    -0.01548
                               V22  TOT/SRF=     0.00235     0.00248
                               V22M TOT/SRF=    -0.00251    -0.01920
                               V21  TOT/SRF=     0.00000     0.00000
                               V21M TOT/SRF=     0.00000     0.00000

             -0.00356   -0.00251    0.00000       -0.00247    0.00000    0.00000
             -0.00251   -0.00826    0.00000        0.00000   -0.00935    0.00000
              0.00000    0.00000    0.01182        0.00000    0.00000    0.01182

         MAIN DIRECTIONS OF THE EFG   1.0000  0.4333  0.0000
                                     -0.4333  1.0000  0.0000
                                      0.0000  0.0000  1.0000
:ANG001:  ANGLE WITH OLD X-AXIS =        23.4

:ETA001:                         ASYMM. ETA =     0.58141


       ATOMNUMBER=  2 O          VCOUL-ZERO = -0.62390E-01
:EFG002:                        EFG         =     2.71293   *10**21  V / m**2
                               V20  TOT/SRF=     0.02371     0.02291
                               V22  TOT/SRF=     0.54172     0.58348
                               V22M TOT/SRF=    -1.19061    -1.29016
                               V21  TOT/SRF=    -1.47216    -1.58919
                               V21M TOT/SRF=     1.30409     1.40056

              0.52803   -1.19061   -1.47216        2.71293    0.00000    0.00000
             -1.19061   -0.55541    1.30409        0.00000   -1.11257    0.00000
             -1.47216    1.30409    0.02738        0.00000    0.00000   -1.60036

         MAIN DIRECTIONS OF THE EFG   1.0000  1.0000  0.0140
                                     -0.7231  0.5280  1.0000
                                     -0.8993  0.6874 -0.7885
:ANG002:  ANGLE WITH OLD X-AXIS =        45.0

:ETA002:                         ASYMM. ETA =     0.17980


     HELLMANN-FEYNMAN-FORCE IN mRy/a.u. = |F|  Fx       Fy             Fz
:FHF001:   1.ATOM      3.234297106774      0.000000000000      0.000000000000     -3.234297106774

     HELLMANN-FEYNMAN-FORCE IN mRy/a.u. = |F|  Fx       Fy             Fz
:FHF002:   2.ATOM   1059.952441015007   -817.800519925463   -422.479744048788   -525.559085823643

:FIT001: LUSE= 13 SIGMA OF V-XC FIT FOR ATOM  1  0.7706199E-02
:FIT001: LUSE= 13 SIGMA OF V-XC FIT FOR ATOM  1  0.7706199E-02
:FIT002: LUSE= 13 SIGMA OF V-XC FIT FOR ATOM  2  0.1286014E-02
:FIT002: LUSE= 13 SIGMA OF V-XC FIT FOR ATOM  2  0.1286014E-02
:DEN  : DENSITY INTEGRAL  =         -1215.73768862   (Ry)
       ELS_POTENTIAL_AT Z=0 and Z=0.5:   0.04269  -0.08431
       ELS_POTENTIAL_AT Y=0 and Y=0.5:   0.00000   0.00000
:VZERO:v0,v0c,v0x  -0.69854   0.04269  -0.74123 v5,v5c,v5x  -0.75044  -0.08431  -0.66613
:VZERY:v0,v0c,v0x  -0.70528   0.00000  -0.70528 v5,v5c,v5x  -0.70528   0.00000  -0.70528
:VZERX:v0,v0c,v0x  -0.10152   0.27945  -0.38097 v5,v5c,v5x  -2.50885  -1.62704  -0.88181
:LMAX-WF:   10   Non-Spherical LMAX:   4

          ATOMIC SPHERE DEPENDENT PARAMETERS FOR ATOM  Si        
:e__0001: OVERALL ENERGY PARAMETER IS   -0.1000
          OVERALL BASIS SET ON ATOM IS LAPW
:E0_0001: E( 0)=   -0.1000
             APW+lo
:E1_0001: E( 1)=   -0.1000
             APW+lo

          ATOMIC SPHERE DEPENDENT PARAMETERS FOR ATOM  O         
:e__0002: OVERALL ENERGY PARAMETER IS   -0.1000
          OVERALL BASIS SET ON ATOM IS LAPW
:E0_0002: E( 0)=   -0.1000
             APW+lo
:E0_0002: E( 0)=   -1.2724   E(BOTTOM)=   -2.562   E(TOP)=    0.017  1  2   232
             LOCAL ORBITAL
:E1_0002: E( 1)=   -0.1000
             APW+lo

       K=   0.00000   0.00000   0.00000            1
:RKM  : MATRIX SIZE  1625LOs:  42  RKM= 6.97  WEIGHT= 1.00  PGR:    
       EIGENVALUES ARE:
:EIG00001:      -1.5024501   -1.4073507   -1.4073507   -1.3681877   -1.3668567
:EIG00006:      -1.3668567   -0.6471712   -0.6471712   -0.4654121   -0.4614503
:EIG00011:      -0.4491630   -0.4491630   -0.2760294   -0.2760294   -0.2637045
:EIG00016:      -0.2468097   -0.1970896   -0.1970896   -0.1947591   -0.1619322
:EIG00021:      -0.1619322   -0.1435676   -0.1191611   -0.1191611    0.4645026
:EIG00026:       0.7348337    0.7348337    0.7521420    0.7521420    0.8616257
:EIG00031:       0.8636113    0.9323872    0.9479922    0.9479922    0.9711314
:EIG00036:       0.9711314    1.0475467    1.1372357    1.1471429    1.1471429
:EIG00041:       1.1610491    1.1610491    1.2766661    1.2766661    1.3693338
:EIG00046:       1.4170496    1.4170496    1.5309526    1.5309526
 
       ********************************************************

:KPT   :      NUMBER OF K-POINTS:    94
       Insulator, EF-inconsistency corrected
:GAP (global)   :  0.568393 Ry =     7.733 eV (accurate value if proper k-mesh)
         Bandranges (emin - emax) and occupancy:
:BAN00014:  14   -0.289826   -0.259858  2.00000000
:BAN00015:  15   -0.267879   -0.248189  2.00000000
:BAN00016:  16   -0.249432   -0.222230  2.00000000
:BAN00017:  17   -0.232439   -0.197090  2.00000000
:BAN00018:  18   -0.216077   -0.192781  2.00000000
:BAN00019:  19   -0.213397   -0.163409  2.00000000
:BAN00020:  20   -0.193601   -0.161291  2.00000000
:BAN00021:  21   -0.174577   -0.153721  2.00000000
:BAN00022:  22   -0.154055   -0.116253  2.00000000
:BAN00023:  23   -0.140658   -0.110010  2.00000000
:BAN00024:  24   -0.131740   -0.103890  2.00000000
:BAN00025:  25    0.464503    0.669973  0.00000000
:BAN00026:  26    0.590861    0.734834  0.00000000
:BAN00027:  27    0.708094    0.758328  0.00000000
:BAN00028:  28    0.743151    0.798995  0.00000000
:BAN00029:  29    0.752142    0.814028  0.00000000
        Energy to separate low and high energystates:   -0.76532


:NOE  : NUMBER OF ELECTRONS          =   48.000

:FER  : F E R M I - ENERGY(TETRAH.M.)=  -0.1038904577
:GMA  : POTENTIAL AND CHARGE CUT-OFF  12.00 Ry**.5

:POS001: ATOM   -1 X,Y,Z = 0.46913 0.46913 0.50000  MULT= 3  ZZ= 14.000  Si        

       LMMAX 25
       LM=   0 0  1 0  2 0  2 2 -2 2  3 0  3 2 -3 2  4 0  4 2 -4 2  4 4 -4 4  5 0  5 2 -5 2  5 4
        -5 4  6 0  6 2 -6 2  6 4 -6 4  6 6 -6 6

:CHA001: TOTAL VALENCE CHARGE INSIDE SPHERE   1 =   0.4827    (RMT=  1.4000 )
:PCS001: PARTIAL CHARGES SPHERE =  1 S,P,D,F,PX,PY,PZ,D-Z2,D-X2Y2,D-XY,D-XZ,D-YZ 
:QTL001: 0.1681 0.2160 0.0889 0.0081 0.0726 0.0732 0.0702 0.0100 0.0138 0.0198 0.0230 0.0223
        Q-s-low E-s-low   Q-p-low E-p-low   Q-d-low E-d-low   Q-f-low E-f-low
:EPL001:  0.0443 -1.4515    0.0412 -1.3844    0.0133 -1.3843    0.0017 -1.4234
        Q-s-hi  E-s-hi    Q-p-hi  E-p-hi    Q-d-hi  E-d-hi    Q-f-hi  E-f-hi 
:EPH001:  0.1238 -0.5863    0.1748 -0.4376    0.0756 -0.3075    0.0065 -0.2913

                      QXX         QXY         QYY         QZZ       UP TO R
:VZZ001:            -0.22319     0.19460    -0.37622     0.59941       1.400

:POS002: ATOM   -2 X,Y,Z = 0.14451 0.41337 0.61807  MULT= 6  ZZ=  8.000  O         

       LMMAX 49

:CHA002: TOTAL VALENCE CHARGE INSIDE SPHERE   2 =   5.8431    (RMT=  1.6200 )
:PCS002: PARTIAL CHARGES SPHERE =  2 S,P,D,F,PX,PY,PZ,D-Z2,D-X2Y2,D-XY,D-XZ,D-YZ 
:QTL002: 1.6269 4.1999 0.0121 0.0038 1.3911 1.4100 1.3989 0.0019 0.0027 0.0021 0.0026 0.0027
        Q-s-low E-s-low   Q-p-low E-p-low   Q-d-low E-d-low   Q-f-low E-f-low
:EPL002:  1.5698 -1.4025    0.0183 -1.4120    0.0036 -1.4116    0.0003 -1.4053
        Q-s-hi  E-s-hi    Q-p-hi  E-p-hi    Q-d-hi  E-d-hi    Q-f-hi  E-f-hi 
:EPH002:  0.0571 -0.3633    4.1816 -0.2918    0.0085 -0.3767    0.0034 -0.3572

                      QXX         QXY         QYY         QZZ       UP TO R
:VZZ002:             1.17538    -2.59564    -1.29657     0.12119       1.620

:CHA  : TOTAL VALENCE CHARGE INSIDE UNIT CELL =      48.000000

:SUM  : SUM OF EIGENVALUES =         -27.823217476


        1.ATOM      Si                    4 CORE STATES
       CORE-FORCE in mRy/a.u. = |F|      Fx             Fy             Fz
:FCO001:   1.ATOM      0.097957053929      0.000000000000      0.000000000000      0.097957053929

:1S 001: 1S                -130.534803544 Ry
:2S 001: 2S                  -9.546426942 Ry
:2PP001: 2P*                 -6.348591540 Ry
:2P 001: 2P                  -6.301200151 Ry

        2.ATOM      O                     1 CORE STATES
       CORE-FORCE in mRy/a.u. = |F|      Fx             Fy             Fz
:FCO002:   2.ATOM    282.620123427812    217.953541191517    112.676738231841    140.265251255836

:1S 002: 1S                 -37.252740901 Ry
:CINT001 Core Integral Atom   1    9.921562
:CINT002 Core Integral Atom   2    2.003872

       DENSITY AT NUCLEUS
        JATOM        VALENCE       SEMI-CORE          CORE           TOTAL
:RTO001:   1        5.021787     1886.050658        0.000000     1891.072444
:RTO002:   2       15.530065      303.946158        0.000000      319.476223
     
       CHARGES OF NEW CHARGE DENSITY
:NTO   : INTERSTITIAL CHARGE =    11.706124
:NPC   : PW Pseudocharge     =    27.040975
:NTO001: CHARGE SPHERE  1    =    10.404224
:NTO002: CHARGE SPHERE  2    =     7.846965

:NEC01: NUCLEAR AND ELECTRONIC CHARGE     90.00000    90.00059
     
       CHARGES OF OLD CHARGE DENSITY
:OTO   : INTERSTITIAL CHARGE =    15.477875
:OPC   : PW Pseudocharge     =    26.779440
:OTO001: CHARGE SPHERE  1    =    10.599355
:OTO002: CHARGE SPHERE  2    =     7.120677

:NEC02: NUCLEAR AND ELECTRONIC CHARGE     90.00000    90.00000
     
       CONVERGENCE TEST
:DTO001: DIFFERENCE IN SPHERE  1 =  0.2774050
:DTO002: DIFFERENCE IN SPHERE  2 =  0.8549314

:DIS  :  CHARGE DISTANCE       ( 0.8549314 for atom    2 spin 1)      0.6624226
 PW Mixed is         2149
 
******************************************************
* MULTISECANT MIXING VER9 RELEASE 10.4.0              *
* Standard Mode with controls                        *
* Fixed density scale                                *
* Regularization       1.000E-04                     *
* Trust Upper Limit    5.000E+00                     *
* Max Number of Memory Steps    8                    *
******************************************************
 
:PWTMP   6.1772E+02  5.7600E+02  7.5905E+02
:PLANE:  PW TOTAL      8.6400 DISTAN   9.15E-01  1.06E+01 %
:CHARG:  CLM/ATOM     80.8974 DISTAN   1.10E+00  1.35E+00 %
 
Step History
        DMIX         DMIXT        Red     Pred      Trust     Lambda    MagRel    MagAbs     Beta
  1   3.5000E-02   3.5000E-02 -1.00E+00  1.00E+00 -1.00E+01  1.00E+00  3.50E-02  3.50E-02  1.00E+00
  2   3.5000E-02   3.5000E-02  7.27E-01  1.00E+00 -1.00E+01  1.00E+00  3.50E-02  1.19E-01  1.00E+00
  3   5.9819E-02   5.9819E-02 -1.00E+00  1.00E+00 -1.00E+01  1.00E+00  5.98E-02  1.48E-01  1.00E+00
:JACOBIANS    7.325E-01   4.105E-03
  
:NORMS:  1/Froebius, Min, Max, Used   0.9838E+00  0.4904E+00  0.9838E+00  0.9838E+00
:INFO :  Number of Memory Steps    2 Skipping    0
:INFO :  SLambda=    0.0778156181  Max    0.0778156181
:PREDicted Charge, CTotal, PW Trust    1.230E-02   6.384E-02   6.772E-01
:PREDicted DMix, Beta, BLim   6.2196E-02  9.6241E-01  1.8705E+00

Eigenvalues, unscaled except for SY+YY
   #     SY Real        SY Imag          SS             YY         SY+YY Real      SY+YY Imag
   1   1.963108E+00   0.000000E+00   1.935779E+00   1.999947E+00   2.152707E+00   0.000000E+00
   2  -1.254497E-15   0.000000E+00  -9.145247E-17   5.340869E-05   5.340599E-05   0.000000E+00
 
:INFO :  Singular value  2.153E+00 Weight  1.000E+00 Projection  1.318E-02
:INFO :  Singular value  5.341E-05 Weight  6.656E-02 Projection -7.443E+00
:RANK :  ACTIVE   1.07/2  =  53.33 % ; YY RANK   1.07/2  =  53.33 %
 
:DLIM :  Beta Active  9.718E-01
:BLIM :  VZERO Control Off
:TRUST:  Step 3.33E-01  Charge 7.50E-02 (e) CTO  2.69E-01 (e) PW  4.14E-01 (e)
:DIRM :  MEMORY  2/8  SCALE   1.000 RED  0.96 PRED  1.00 NEXT  0.99 BETA  0.97
:TRAVE:  Charge 3.98E-02 (e) CTO  2.06E-01 (e) PW  1.52E-01 (e)
:DIRP :  |MSR1|= 5.251E-02 |PRATT|= 9.152E-01 ANGLE=   7.1 DEGREES
:DIRQ :  |MSR1|= 1.187E-01 |PRATT|= 2.191E+00 ANGLE=   1.3 DEGREES
:DIRT :  |MSR1|= 1.298E-01 |PRATT|= 2.375E+00 ANGLE=   3.3 DEGREES
:MIX  :   MSD1   REGULARIZATION:  2.00E-04 GREED: 0.05480  Newton 1.00  0.0546                
     
       CHARGES OF MIXED CHARGE DENSITY
:CTO   : INTERSTITIAL CHARGE =    15.271423
:CPC   : PW Pseudocharge     =    26.785972
:CTO001: CHARGE SPHERE  1    =    10.588602
:CTO002: CHARGE SPHERE  2    =     7.160462

:NEC03: NUCLEAR AND ELECTRONIC CHARGE     90.00000    90.00000

PW CHANGE     H    K    L             Current                    Change               Residue
:PTO001:      0    0    0  5.54076800E-02 0.00000000E+00 -2.634E-04  0.000E+00 -4.627E-03  0.000E+00
:PTO002:      0    0   -1 -7.39412572E-10 0.00000000E+00  3.980E-11  0.000E+00  7.284E-10  0.000E+00
:PTO003:     -1    0    0 -3.92654663E-02 0.00000000E+00  1.225E-04  0.000E+00  2.211E-03  0.000E+00
:PTO004:     -1    0   -1  4.46339517E-02-7.73082702E-02 -2.867E-05  4.966E-05 -4.429E-04  7.672E-04
:PTO005:     -1    0    1  2.67048146E-02 4.62540946E-02 -2.061E-05 -3.570E-05 -3.624E-04 -6.276E-04
:PTO006:      0    0   -2 -3.60396556E-10 0.00000000E+00  1.632E-11  0.000E+00  2.954E-10  0.000E+00
:PTO007:     -2    1    0 -1.60047060E-02-2.38419687E-02 -1.198E-05 -5.022E-05 -2.740E-04 -1.252E-03
:PTO008:     -1   -1    0 -1.60047060E-02 2.38419687E-02 -1.198E-05  5.022E-05 -2.740E-04  1.252E-03
:PTO009:     -1    0   -2  3.84173254E-02 6.65407627E-02  7.409E-05  1.283E-04  1.950E-03  3.377E-03
:PTO010:     -1    0    2  1.06028548E-03-1.83646842E-03 -3.356E-06  5.813E-06  1.860E-04 -3.222E-04
:PTO011:     -2    1   -1 -4.70581272E-02-2.59279066E-02 -1.208E-04 -1.932E-05 -2.904E-03 -9.909E-04
:PTO012:     -1   -1   -1  4.59832888E-02 2.77895813E-02  7.714E-05  9.496E-05  2.310E-03  2.020E-03

:ENE  : ********** TOTAL ENERGY IN Ry =        -2644.78713088

       TOTAL FORCE IN mRy/a.u. = |F|     Fx             Fy             Fz     with/without FOR in case.in2
:FOR001:   1.ATOM          3.136          0.000          0.000         -3.136 partial forces
:FOR002:   2.ATOM        777.332       -599.847       -309.803       -385.294 partial forces
       TOTAL FORCE WITH RESPECT TO GLOBAL CARTESIAN COORDINATES:
:FCA001:   1.ATOM                        -2.716         -1.568          0.000 partial forces
:FCA002:   2.ATOM                      -599.847       -309.803       -385.294 partial forces
       TOTAL FORCE WITH RESPECT TO THE GLOBAL COORDINATE SYSTEM:
:FGL001:   1.ATOM                -3.136340053    -3.136340053     0.000000000 partial forces
:FGL002:   2.ATOM              -692.643629289  -656.124820462  -385.293834568 partial forces
 Flat Integration
 New Mode for Coulomb Integral
 Consistent 3/8+Simpson combinations
 Extension of core to zero
 LDM version in phi
 Fifth-order quadrature in outwin


            ---------
:ITE004:  4. ITERATION
            ---------

:NATO :    2 INDEPENDENT AND    9 TOTAL ATOMS IN UNITCELL
       SUBSTANCE: SiO2 for tests                                              

       LATTICE                      = H   
:POT  : POTENTIAL OPTION EX_PBE EC_PBE VX_PBE VC_PBE
:LAT  : LATTICE CONSTANTS=  9.26193  9.26193 10.21737
:VOL  : UNIT CELL VOLUME =     759.05354
       MODE OF CALCULATION IS       = RELA
       NON-SPINPOLARIZED CALCULATION
:IFFT  : FFT-parameters:   72   72   80 Factor: 2.00


   CONVERGENCE PARAMETER FOR PSEUDOCHARGE: NCON=  9
   MAXIMAL VALUE OF RMT(JATOM)*ABSK(NKK) : RK  =19.43469


:VKCOUL :  VK-COUL convergence: 0.341E-05
       ATOMNUMBER=  1 Si         VCOUL-ZERO = -0.14387E+01
:EFG001:                        EFG         =     0.04315   *10**21  V / m**2
                               V20  TOT/SRF=     0.03737    -0.01477
                               V22  TOT/SRF=     0.00572     0.00131
                               V22M TOT/SRF=     0.00760    -0.01807
                               V21  TOT/SRF=     0.00000     0.00000
                               V21M TOT/SRF=     0.00000     0.00000

             -0.01585    0.00760    0.00000       -0.01206    0.00000    0.00000
              0.00760   -0.02730    0.00000        0.00000   -0.03109    0.00000
              0.00000    0.00000    0.04315        0.00000    0.00000    0.04315

         MAIN DIRECTIONS OF THE EFG   1.0000 -0.4991  0.0000
                                      0.4991  1.0000  0.0000
                                      0.0000  0.0000  1.0000
:ANG001:  ANGLE WITH OLD X-AXIS =        26.5

:ETA001:                         ASYMM. ETA =     0.44102


       ATOMNUMBER=  2 O          VCOUL-ZERO = -0.52745E-01
:EFG002:                        EFG         =     3.10750   *10**21  V / m**2
                               V20  TOT/SRF=     0.03022     0.02326
                               V22  TOT/SRF=     0.62167     0.58492
                               V22M TOT/SRF=    -1.35911    -1.29205
                               V21  TOT/SRF=    -1.68543    -1.59124
                               V21M TOT/SRF=     1.49953     1.40198

              0.60422   -1.35911   -1.68543        3.10750    0.00000    0.00000
             -1.35911   -0.63912    1.49953        0.00000   -1.26838    0.00000
             -1.68543    1.49953    0.03490        0.00000    0.00000   -1.83911

         MAIN DIRECTIONS OF THE EFG   1.0000  1.0000  0.0113
                                     -0.7236  0.5293  1.0000
                                     -0.9017  0.6843 -0.7900
:ANG002:  ANGLE WITH OLD X-AXIS =        45.0

:ETA002:                         ASYMM. ETA =     0.18366


     HELLMANN-FEYNMAN-FORCE IN mRy/a.u. = |F|  Fx       Fy             Fz
:FHF001:   1.ATOM      5.252027695900      0.000000000000      0.000000000000     -5.252027695900

     HELLMANN-FEYNMAN-FORCE IN mRy/a.u. = |F|  Fx       Fy             Fz
:FHF002:   2.ATOM   1033.990514321406   -797.026257361555   -414.669821672814   -511.795337783293

:FIT001: LUSE= 13 SIGMA OF V-XC FIT FOR ATOM  1  0.8343374E-02
:FIT001: LUSE= 13 SIGMA OF V-XC FIT FOR ATOM  1  0.8343374E-02
:FIT002: LUSE= 13 SIGMA OF V-XC FIT FOR ATOM  2  0.1224338E-02
:FIT002: LUSE= 13 SIGMA OF V-XC FIT FOR ATOM  2  0.1224338E-02
:DEN  : DENSITY INTEGRAL  =         -1217.04451270   (Ry)
       ELS_POTENTIAL_AT Z=0 and Z=0.5:   0.04477  -0.08677
       ELS_POTENTIAL_AT Y=0 and Y=0.5:   0.00000   0.00000
:VZERO:v0,v0c,v0x  -0.69278   0.04477  -0.73755 v5,v5c,v5x  -0.75015  -0.08677  -0.66338
:VZERY:v0,v0c,v0x  -0.70190   0.00000  -0.70190 v5,v5c,v5x  -0.70190   0.00000  -0.70190
:VZERX:v0,v0c,v0x  -0.10638   0.27251  -0.37889 v5,v5c,v5x  -2.51092  -1.63080  -0.88011
:LMAX-WF:   10   Non-Spherical LMAX:   4

          ATOMIC SPHERE DEPENDENT PARAMETERS FOR ATOM  Si        
:e__0001: OVERALL ENERGY PARAMETER IS   -0.3000
          OVERALL BASIS SET ON ATOM IS LAPW
:E0_0001: E( 0)=   -0.3000
             APW+lo
:E1_0001: E( 1)=   -0.3000
             APW+lo

          ATOMIC SPHERE DEPENDENT PARAMETERS FOR ATOM  O         
:e__0002: OVERALL ENERGY PARAMETER IS   -0.3000
          OVERALL BASIS SET ON ATOM IS LAPW
:E0_0002: E( 0)=    0.1000
             APW+lo
:E0_0002: E( 0)=   -1.2412   E(BOTTOM)=   -2.537   E(TOP)=    0.054  1  2   228
             LOCAL ORBITAL
:E1_0002: E( 1)=   -0.3000
             APW+lo

       K=   0.00000   0.00000   0.00000            1
:RKM  : MATRIX SIZE  1625LOs:  42  RKM= 6.97  WEIGHT= 1.00  PGR:    
       EIGENVALUES ARE:
:EIG00001:      -1.4806082   -1.3830664   -1.3830664   -1.3427123   -1.3412347
:EIG00006:      -1.3412347   -0.6297378   -0.6297378   -0.4437836   -0.4406176
:EIG00011:      -0.4279240   -0.4279240   -0.2548366   -0.2548366   -0.2416043
:EIG00016:      -0.2245709   -0.1723031   -0.1723031   -0.1701029   -0.1366818
:EIG00021:      -0.1366818   -0.1177596   -0.0927765   -0.0927765    0.4719481
:EIG00026:       0.7384011    0.7384011    0.7580906    0.7580906    0.8667361
:EIG00031:       0.8721199    0.9392432    0.9577603    0.9577604    0.9838138
:EIG00036:       0.9838138    1.0574059    1.1440656    1.1520594    1.1520594
:EIG00041:       1.1646309    1.1646310    1.2812633    1.2812633    1.3737747
       ********************************************************

:KPT   :      NUMBER OF K-POINTS:    94
       Insulator, EF-inconsistency corrected
:GAP (global)   :  0.548535 Ry =     7.463 eV (accurate value if proper k-mesh)
         Bandranges (emin - emax) and occupancy:
:BAN00014:  14   -0.269399   -0.237696  2.00000000
:BAN00015:  15   -0.246945   -0.225561  2.00000000
:BAN00016:  16   -0.226903   -0.198707  2.00000000
:BAN00017:  17   -0.209279   -0.172303  2.00000000
:BAN00018:  18   -0.192459   -0.168461  2.00000000
:BAN00019:  19   -0.189809   -0.138077  2.00000000
:BAN00020:  20   -0.169441   -0.136001  2.00000000
:BAN00021:  21   -0.149728   -0.128255  2.00000000
:BAN00022:  22   -0.128461   -0.089415  2.00000000
:BAN00023:  23   -0.114722   -0.083052  2.00000000
:BAN00024:  24   -0.105670   -0.076587  2.00000000
:BAN00025:  25    0.471948    0.679310  0.00000000
:BAN00026:  26    0.600829    0.739781  0.00000000
:BAN00027:  27    0.717174    0.763088  0.00000000
:BAN00028:  28    0.746152    0.805251  0.00000000
:BAN00029:  29    0.758091    0.820157  0.00000000
        Energy to separate low and high energystates:   -0.74960


:NOE  : NUMBER OF ELECTRONS          =   48.000

:FER  : F E R M I - ENERGY(TETRAH.M.)=  -0.0765873461
:GMA  : POTENTIAL AND CHARGE CUT-OFF  12.00 Ry**.5

:POS001: ATOM   -1 X,Y,Z = 0.46913 0.46913 0.50000  MULT= 3  ZZ= 14.000  Si        

       LMMAX 25
       LM=   0 0  1 0  2 0  2 2 -2 2  3 0  3 2 -3 2  4 0  4 2 -4 2  4 4 -4 4  5 0  5 2 -5 2  5 4
        -5 4  6 0  6 2 -6 2  6 4 -6 4  6 6 -6 6

:CHA001: TOTAL VALENCE CHARGE INSIDE SPHERE   1 =   0.4952    (RMT=  1.4000 )
:PCS001: PARTIAL CHARGES SPHERE =  1 S,P,D,F,PX,PY,PZ,D-Z2,D-X2Y2,D-XY,D-XZ,D-YZ 
:QTL001: 0.1724 0.2221 0.0911 0.0081 0.0747 0.0753 0.0721 0.0103 0.0142 0.0203 0.0234 0.0228
        Q-s-low E-s-low   Q-p-low E-p-low   Q-d-low E-d-low   Q-f-low E-f-low
:EPL001:  0.0458 -1.4283    0.0423 -1.3592    0.0135 -1.3592    0.0017 -1.3993
        Q-s-hi  E-s-hi    Q-p-hi  E-p-hi    Q-d-hi  E-d-hi    Q-f-hi  E-f-hi 
:EPH001:  0.1266 -0.5673    0.1798 -0.4159    0.0776 -0.2820    0.0065 -0.2642

                      QXX         QXY         QYY         QZZ       UP TO R
:VZZ001:            -0.22364     0.19460    -0.40069     0.62433       1.400

:POS002: ATOM   -2 X,Y,Z = 0.14451 0.41337 0.61807  MULT= 6  ZZ=  8.000  O         

       LMMAX 49

:CHA002: TOTAL VALENCE CHARGE INSIDE SPHERE   2 =   5.7937    (RMT=  1.6200 )
:PCS002: PARTIAL CHARGES SPHERE =  2 S,P,D,F,PX,PY,PZ,D-Z2,D-X2Y2,D-XY,D-XZ,D-YZ 
:QTL002: 1.6211 4.1558 0.0125 0.0038 1.3767 1.3950 1.3842 0.0020 0.0028 0.0022 0.0027 0.0028
        Q-s-low E-s-low   Q-p-low E-p-low   Q-d-low E-d-low   Q-f-low E-f-low
:EPL002:  1.5615 -1.3780    0.0187 -1.3879    0.0037 -1.3874    0.0003 -1.3809
        Q-s-hi  E-s-hi    Q-p-hi  E-p-hi    Q-d-hi  E-d-hi    Q-f-hi  E-f-hi 
:EPH002:  0.0596 -0.3433    4.1371 -0.2684    0.0088 -0.3527    0.0035 -0.3342

                      QXX         QXY         QYY         QZZ       UP TO R
:VZZ002:             1.10124    -2.41848    -1.21809     0.11685       1.620

:CHA  : TOTAL VALENCE CHARGE INSIDE UNIT CELL =      48.000000

:SUM  : SUM OF EIGENVALUES =         -26.710892664


        1.ATOM      Si                    4 CORE STATES
       CORE-FORCE in mRy/a.u. = |F|      Fx             Fy             Fz
:FCO001:   1.ATOM      1.549237293415      0.000000000000      0.000000000000      1.549237293415

:1S 001: 1S                -130.551862689 Ry
:2S 001: 2S                  -9.558311033 Ry
:2PP001: 2P*                 -6.360776733 Ry
:2P 001: 2P                  -6.313361263 Ry

        2.ATOM      O                     1 CORE STATES
       CORE-FORCE in mRy/a.u. = |F|      Fx             Fy             Fz
:FCO002:   2.ATOM    288.439253185380    222.159257414997    115.670889690178    143.047937423926

:1S 002: 1S                 -37.192138142 Ry
:CINT001 Core Integral Atom   1    9.921865
:CINT002 Core Integral Atom   2    2.003853

       DENSITY AT NUCLEUS
        JATOM        VALENCE       SEMI-CORE          CORE           TOTAL
:RTO001:   1        5.162212     1886.107577        0.000000     1891.269789
:RTO002:   2       15.389448      303.921997        0.000000      319.311445
     
       CHARGES OF NEW CHARGE DENSITY
:NTO   : INTERSTITIAL CHARGE =    11.964217
:NPC   : PW Pseudocharge     =    26.993964
:NTO001: CHARGE SPHERE  1    =    10.417050
:NTO002: CHARGE SPHERE  2    =     7.797537

:NEC01: NUCLEAR AND ELECTRONIC CHARGE     90.00000    90.00059
     
       CHARGES OF OLD CHARGE DENSITY
:OTO   : INTERSTITIAL CHARGE =    15.271423
:OPC   : PW Pseudocharge     =    26.785972
:OTO001: CHARGE SPHERE  1    =    10.588602
:OTO002: CHARGE SPHERE  2    =     7.160462

:NEC02: NUCLEAR AND ELECTRONIC CHARGE     90.00000    90.00000
     
       CONVERGENCE TEST
:DTO001: DIFFERENCE IN SPHERE  1 =  0.2427166
:DTO002: DIFFERENCE IN SPHERE  2 =  0.7311732

:DIS  :  CHARGE DISTANCE       ( 0.7311732 for atom    2 spin 1)      0.5683543
 PW Mixed is         2149
 
******************************************************
* MULTISECANT MIXING VER9 RELEASE 10.4.0              *
* Standard Mode with controls                        *
* Fixed density scale                                *
* Regularization       1.000E-04                     *
* Trust Upper Limit    5.000E+00                     *
* Max Number of Memory Steps    8                    *
******************************************************
 
:PWTMP   6.1772E+02  5.7600E+02  7.5905E+02
:PLANE:  PW TOTAL      8.6253 DISTAN   8.57E-01  9.94E+00 %
:CHARG:  CLM/ATOM     80.8946 DISTAN   9.42E-01  1.16E+00 %
 
Step History
        DMIX         DMIXT        Red     Pred      Trust     Lambda    MagRel    MagAbs     Beta
  1   3.5000E-02   3.5000E-02 -1.00E+00  1.00E+00 -1.00E+01  1.00E+00  3.50E-02  3.50E-02  1.00E+00
  2   3.5000E-02   3.5000E-02  7.27E-01  1.00E+00 -1.00E+01  1.00E+00  3.50E-02  1.19E-01  1.00E+00
  3   5.9819E-02   5.9819E-02  9.60E-01  1.00E+00 -1.00E+01  7.78E-02  5.98E-02  1.48E-01  1.00E+00
  4   5.4803E-02   5.4803E-02 -1.00E+00  9.93E-01  3.33E-01  1.00E+00  5.46E-02  1.30E-01  9.72E-01
:JACOBIANS    8.833E-01   1.676E-01
  
:NORMS:  1/Froebius, Min, Max, Used   0.7605E+00  0.4668E+00  0.1014E+01  0.8350E+00
:INFO :  Number of Memory Steps    3 Skipping    0
:INFO :  SLambda=    1.4338845806  Max    1.4338845806
:PREDicted Charge, CTotal, PW Trust    2.895E-01   1.502E+00   1.561E+00
:PREDicted DMix, Beta, BLim   3.7949E-01  3.8882E+00  2.2882E+00

Eigenvalues, unscaled except for SY+YY
   #     SY Real        SY Imag          SS             YY         SY+YY Real      SY+YY Imag
   1   1.737318E+00   0.000000E+00   1.578952E+00   2.264803E+00   4.669655E+00   0.000000E+00
   2  -8.621832E-16   0.000000E+00   1.559271E-01   7.351651E-01   3.277707E-05   0.000000E+00
   3   3.442502E-01   0.000000E+00  -1.262715E-16   3.169562E-05   1.315041E+00   0.000000E+00
 
:INFO :  Singular value  4.679E+00 Weight  1.000E+00 Projection -3.063E-01
:INFO :  Singular value  1.313E+00 Weight  1.000E+00 Projection -2.126E+00
:INFO :  Singular value  3.278E-05 Weight  2.052E-02 Projection -1.261E+00
:RANK :  ACTIVE   2.02/3  =  67.35 % ; YY RANK   2.02/3  =  67.31 %
 
:BLIM :  VZERO Control Off
:TRUST:  Step 3.88E-01  Charge 8.25E-02 (e) CTO  2.96E-01 (e) PW  4.56E-01 (e)
:DTRUS:  Lambda    9.009E+00 Increment    7.276E-12 Iterations   131 DMIX    4.453E-02
:INFOA:  Angle SubSpace to MSR1     30.72
:DIRM :  MEMORY  3/8  SCALE   1.000 RED  0.87 PRED  0.99 NEXT  0.82 
:TRAVE:  Charge 4.84E-02 (e) CTO  2.51E-01 (e) PW  1.72E-01 (e)
:DIRP :  |MSR1|= 8.292E-02 |PRATT|= 8.570E-01 ANGLE=  10.5 DEGREES
:DIRQ :  |MSR1|= 1.605E-01 |PRATT|= 1.883E+00 ANGLE=   8.4 DEGREES
:DIRT :  |MSR1|= 1.807E-01 |PRATT|= 2.069E+00 ANGLE=   9.2 DEGREES
:MIX  :   MSE1   REGULARIZATION:  2.26E-04 GREED: 0.13701  LMStep 0.19  0.0873 CTotal         
     
       CHARGES OF MIXED CHARGE DENSITY
:CTO   : INTERSTITIAL CHARGE =    14.975416
:CPC   : PW Pseudocharge     =    26.829437
:CTO001: CHARGE SPHERE  1    =    10.573056
:CTO002: CHARGE SPHERE  2    =     7.217569

:NEC03: NUCLEAR AND ELECTRONIC CHARGE     90.00000    90.00000

PW CHANGE     H    K    L             Current                    Change               Residue
:PTO001:      0    0    0  5.50749726E-02 0.00000000E+00 -3.327E-04  0.000E+00 -4.086E-03  0.000E+00
:PTO002:      0    0   -1 -6.66994415E-10 0.00000000E+00  7.242E-11  0.000E+00  6.888E-10  0.000E+00
:PTO003:     -1    0    0 -3.91233049E-02 0.00000000E+00  1.422E-04  0.000E+00  1.858E-03  0.000E+00
:PTO004:     -1    0   -1  4.46365631E-02-7.73127933E-02  2.611E-06 -4.523E-06 -3.317E-04  5.746E-04
:PTO005:     -1    0    1  2.66993482E-02 4.62446266E-02 -5.466E-06 -9.468E-06 -2.595E-04 -4.495E-04
:PTO006:      0    0   -2 -3.31585131E-10 0.00000000E+00  2.881E-11  0.000E+00  2.792E-10  0.000E+00
:PTO007:     -2    1    0 -1.60271325E-02-2.39828229E-02 -2.243E-05 -1.409E-04 -1.984E-04 -1.028E-03
:PTO008:     -1   -1    0 -1.60271325E-02 2.39828229E-02 -2.243E-05  1.409E-04 -1.984E-04  1.028E-03
:PTO009:     -1    0   -2  3.86384208E-02 6.69237112E-02  2.211E-04  3.829E-04  1.565E-03  2.711E-03
:PTO010:     -1    0    2  1.10480152E-03-1.91357245E-03  4.452E-05 -7.710E-05  1.221E-04 -2.115E-04
:PTO011:     -2    1   -1 -4.73786468E-02-2.60666920E-02 -3.205E-04 -1.388E-04 -2.423E-03 -6.871E-04
:PTO012:     -1   -1   -1  4.62637403E-02 2.79977667E-02  2.805E-04  2.082E-04  1.807E-03  1.755E-03

:ENE  : ********** TOTAL ENERGY IN Ry =        -2644.64710095

       TOTAL FORCE IN mRy/a.u. = |F|     Fx             Fy             Fz     with/without FOR in case.in2
:FOR001:   1.ATOM          3.703          0.000          0.000         -3.703 partial forces
:FOR002:   2.ATOM        745.552       -574.867       -298.999       -368.747 partial forces
       TOTAL FORCE WITH RESPECT TO GLOBAL CARTESIAN COORDINATES:
:FCA001:   1.ATOM                        -3.207         -1.851          0.000 partial forces
:FCA002:   2.ATOM                      -574.867       -298.999       -368.747 partial forces
       TOTAL FORCE WITH RESPECT TO THE GLOBAL COORDINATE SYSTEM:
:FGL001:   1.ATOM                -3.702790402    -3.702790402     0.000000000 partial forces
:FGL002:   2.ATOM              -663.799234335  -630.898549150  -368.747400359 partial forces
 Flat Integration
 New Mode for Coulomb Integral
 Consistent 3/8+Simpson combinations
 Extension of core to zero
 LDM version in phi
 Fifth-order quadrature in outwin


            ---------
:ITE005:  5. ITERATION
            ---------

:NATO :    2 INDEPENDENT AND    9 TOTAL ATOMS IN UNITCELL
       SUBSTANCE: SiO2 for tests                                              

       LATTICE                      = H   
:POT  : POTENTIAL OPTION EX_PBE EC_PBE VX_PBE VC_PBE
:LAT  : LATTICE CONSTANTS=  9.26193  9.26193 10.21737
:VOL  : UNIT CELL VOLUME =     759.05354
       MODE OF CALCULATION IS       = RELA
       NON-SPINPOLARIZED CALCULATION
:IFFT  : FFT-parameters:   72   72   80 Factor: 2.00


   CONVERGENCE PARAMETER FOR PSEUDOCHARGE: NCON=  9
   MAXIMAL VALUE OF RMT(JATOM)*ABSK(NKK) : RK  =19.43469


:VKCOUL :  VK-COUL convergence: 0.340E-05
       ATOMNUMBER=  1 Si         VCOUL-ZERO = -0.14443E+01
:EFG001:                        EFG         =     0.10970   *10**21  V / m**2
                               V20  TOT/SRF=     0.09500    -0.01146
                               V22  TOT/SRF=     0.01624     0.00034
                               V22M TOT/SRF=     0.02596    -0.01633
                               V21  TOT/SRF=     0.00000     0.00000
                               V21M TOT/SRF=     0.00000     0.00000

             -0.03861    0.02596    0.00000       -0.02423    0.00000    0.00000
              0.02596   -0.07109    0.00000        0.00000   -0.08547    0.00000
              0.00000    0.00000    0.10970        0.00000    0.00000    0.10970

         MAIN DIRECTIONS OF THE EFG   1.0000 -0.5541  0.0000
                                      0.5541  1.0000  0.0000
                                      0.0000  0.0000  1.0000
:ANG001:  ANGLE WITH OLD X-AXIS =        29.0

:ETA001:                         ASYMM. ETA =     0.55827


       ATOMNUMBER=  2 O          VCOUL-ZERO = -0.37523E-01
:EFG002:                        EFG         =     3.67303   *10**21  V / m**2
                               V20  TOT/SRF=     0.04040     0.02375
                               V22  TOT/SRF=     0.73703     0.58583
                               V22M TOT/SRF=    -1.59768    -1.29289
                               V21  TOT/SRF=    -1.99116    -1.59179
                               V21M TOT/SRF=     1.78249     1.40194

              0.71371   -1.59768   -1.99116        3.67303    0.00000    0.00000
             -1.59768   -0.76036    1.78249        0.00000   -1.48856    0.00000
             -1.99116    1.78249    0.04665        0.00000    0.00000   -2.18447

         MAIN DIRECTIONS OF THE EFG   1.0000  1.0000  0.0062
                                     -0.7243  0.5324  1.0000
                                     -0.9051  0.6788 -0.7934
:ANG002:  ANGLE WITH OLD X-AXIS =        45.0

:ETA002:                         ASYMM. ETA =     0.18947


     HELLMANN-FEYNMAN-FORCE IN mRy/a.u. = |F|  Fx       Fy             Fz
:FHF001:   1.ATOM      5.336869439635      0.000000000000      0.000000000000     -5.336869439635

     HELLMANN-FEYNMAN-FORCE IN mRy/a.u. = |F|  Fx       Fy             Fz
:FHF002:   2.ATOM    983.244520430949   -757.330669939148   -396.484268422083   -485.819172347916

:FIT001: LUSE= 13 SIGMA OF V-XC FIT FOR ATOM  1  0.9425564E-02
:FIT001: LUSE= 13 SIGMA OF V-XC FIT FOR ATOM  1  0.9425564E-02
:FIT002: LUSE= 13 SIGMA OF V-XC FIT FOR ATOM  2  0.1096270E-02
:FIT002: LUSE= 13 SIGMA OF V-XC FIT FOR ATOM  2  0.1096270E-02
:DEN  : DENSITY INTEGRAL  =         -1218.87814397   (Ry)
       ELS_POTENTIAL_AT Z=0 and Z=0.5:   0.04748  -0.08995
       ELS_POTENTIAL_AT Y=0 and Y=0.5:   0.00000   0.00000
:VZERO:v0,v0c,v0x  -0.68415   0.04748  -0.73163 v5,v5c,v5x  -0.74842  -0.08995  -0.65847
:VZERY:v0,v0c,v0x  -0.69652   0.00000  -0.69652 v5,v5c,v5x  -0.69652   0.00000  -0.69652
:VZERX:v0,v0c,v0x  -0.11143   0.26270  -0.37413 v5,v5c,v5x  -2.51065  -1.63465  -0.87600
:LMAX-WF:   10   Non-Spherical LMAX:   4

          ATOMIC SPHERE DEPENDENT PARAMETERS FOR ATOM  Si        
:e__0001: OVERALL ENERGY PARAMETER IS   -0.2844
          OVERALL BASIS SET ON ATOM IS LAPW
:E0_0001: E( 0)=   -0.2844
             APW+lo
:E1_0001: E( 1)=   -0.2844
             APW+lo

          ATOMIC SPHERE DEPENDENT PARAMETERS FOR ATOM  O         
:e__0002: OVERALL ENERGY PARAMETER IS   -0.2844
          OVERALL BASIS SET ON ATOM IS LAPW
:E0_0002: E( 0)=    0.1156
             APW+lo
:E0_0002: E( 0)=   -1.1983   E(BOTTOM)=   -2.502   E(TOP)=    0.105  1  2   228
             LOCAL ORBITAL
:E1_0002: E( 1)=   -0.2844
             APW+lo

       K=   0.00000   0.00000   0.00000            1
:RKM  : MATRIX SIZE  1625LOs:  42  RKM= 6.97  WEIGHT= 1.00  PGR:    
       EIGENVALUES ARE:
:EIG00001:      -1.4505170   -1.3496313   -1.3496313   -1.3076237   -1.3059515
:EIG00006:      -1.3059515   -0.6057604   -0.6057604   -0.4141937   -0.4121289
:EIG00011:      -0.3988940   -0.3988940   -0.2260956   -0.2260956   -0.2116320
:EIG00016:      -0.1944559   -0.1385021   -0.1385021   -0.1364373   -0.1024519
:EIG00021:      -0.1024519   -0.0827356   -0.0569923   -0.0569923    0.4830184
:EIG00026:       0.7439601    0.7439601    0.7672118    0.7672118    0.8718724
:EIG00031:       0.8866941    0.9489757    0.9703449    0.9703449    1.0012593
:EIG00036:       1.0012593    1.0707428    1.1531638    1.1593051    1.1593051
:EIG00041:       1.1704247    1.1704247    1.2881439    1.2881439    1.3800924
       ********************************************************

:KPT   :      NUMBER OF K-POINTS:    94
       Insulator, EF-inconsistency corrected
:GAP (global)   :  0.522521 Ry =     7.109 eV (accurate value if proper k-mesh)
         Bandranges (emin - emax) and occupancy:
:BAN00014:  14   -0.241686   -0.207633  2.00000000
:BAN00015:  15   -0.218594   -0.194829  2.00000000
:BAN00016:  16   -0.196292   -0.166869  2.00000000
:BAN00017:  17   -0.177814   -0.138502  2.00000000
:BAN00018:  18   -0.160343   -0.135448  2.00000000
:BAN00019:  19   -0.157634   -0.103683  2.00000000
:BAN00020:  20   -0.136634   -0.101657  2.00000000
:BAN00021:  21   -0.116004   -0.093738  2.00000000
:BAN00022:  22   -0.093694   -0.052974  2.00000000
:BAN00023:  23   -0.079456   -0.046453  2.00000000
:BAN00024:  24   -0.070286   -0.039503  2.00000000
:BAN00025:  25    0.483018    0.692900  0.00000000
:BAN00026:  26    0.615206    0.752615  0.00000000
:BAN00027:  27    0.730136    0.769939  0.00000000
:BAN00028:  28    0.750434    0.813670  0.00000000
:BAN00029:  29    0.767212    0.828860  0.00000000
        Energy to separate low and high energystates:   -0.72797


:NOE  : NUMBER OF ELECTRONS          =   48.000

:FER  : F E R M I - ENERGY(TETRAH.M.)=  -0.0395025264
:GMA  : POTENTIAL AND CHARGE CUT-OFF  12.00 Ry**.5

:POS001: ATOM   -1 X,Y,Z = 0.46913 0.46913 0.50000  MULT= 3  ZZ= 14.000  Si        

       LMMAX 25
       LM=   0 0  1 0  2 0  2 2 -2 2  3 0  3 2 -3 2  4 0  4 2 -4 2  4 4 -4 4  5 0  5 2 -5 2  5 4
        -5 4  6 0  6 2 -6 2  6 4 -6 4  6 6 -6 6

:CHA001: TOTAL VALENCE CHARGE INSIDE SPHERE   1 =   0.5120    (RMT=  1.4000 )
:PCS001: PARTIAL CHARGES SPHERE =  1 S,P,D,F,PX,PY,PZ,D-Z2,D-X2Y2,D-XY,D-XZ,D-YZ 
:QTL001: 0.1781 0.2303 0.0940 0.0082 0.0774 0.0782 0.0747 0.0108 0.0148 0.0210 0.0241 0.0234
        Q-s-low E-s-low   Q-p-low E-p-low   Q-d-low E-d-low   Q-f-low E-f-low
:EPL001:  0.0479 -1.3963    0.0436 -1.3246    0.0136 -1.3246    0.0017 -1.3663
        Q-s-hi  E-s-hi    Q-p-hi  E-p-hi    Q-d-hi  E-d-hi    Q-f-hi  E-f-hi 
:EPH001:  0.1302 -0.5412    0.1867 -0.3862    0.0804 -0.2472    0.0065 -0.2273

                      QXX         QXY         QYY         QZZ       UP TO R
:VZZ001:            -0.22148     0.19261    -0.43814     0.65962       1.400

:POS002: ATOM   -2 X,Y,Z = 0.14451 0.41337 0.61807  MULT= 6  ZZ=  8.000  O         

       LMMAX 49

:CHA002: TOTAL VALENCE CHARGE INSIDE SPHERE   2 =   5.7264    (RMT=  1.6200 )
:PCS002: PARTIAL CHARGES SPHERE =  2 S,P,D,F,PX,PY,PZ,D-Z2,D-X2Y2,D-XY,D-XZ,D-YZ 
:QTL002: 1.6132 4.0957 0.0131 0.0040 1.3571 1.3745 1.3642 0.0021 0.0029 0.0023 0.0028 0.0029
        Q-s-low E-s-low   Q-p-low E-p-low   Q-d-low E-d-low   Q-f-low E-f-low
:EPL002:  1.5501 -1.3441    0.0191 -1.3547    0.0038 -1.3541    0.0003 -1.3472
        Q-s-hi  E-s-hi    Q-p-hi  E-p-hi    Q-d-hi  E-d-hi    Q-f-hi  E-f-hi 
:EPH002:  0.0631 -0.3162    4.0766 -0.2366    0.0093 -0.3200    0.0036 -0.3030

                      QXX         QXY         QYY         QZZ       UP TO R
:VZZ002:             1.04523    -2.28230    -1.15821     0.11297       1.620

:CHA  : TOTAL VALENCE CHARGE INSIDE UNIT CELL =      48.000000

:SUM  : SUM OF EIGENVALUES =         -25.191858779


        1.ATOM      Si                    4 CORE STATES
       CORE-FORCE in mRy/a.u. = |F|      Fx             Fy             Fz
:FCO001:   1.ATOM      1.460013228398      0.000000000000      0.000000000000      1.460013228398

:1S 001: 1S                -130.571369456 Ry
:2S 001: 2S                  -9.572609721 Ry
:2PP001: 2P*                 -6.375324926 Ry
:2P 001: 2P                  -6.327882308 Ry

        2.ATOM      O                     1 CORE STATES
       CORE-FORCE in mRy/a.u. = |F|      Fx             Fy             Fz
:FCO002:   2.ATOM    296.773602491936    228.295831339642    119.557164027505    147.179037429532

:1S 002: 1S                 -37.114407101 Ry
:CINT001 Core Integral Atom   1    9.922259
:CINT002 Core Integral Atom   2    2.003829

       DENSITY AT NUCLEUS
        JATOM        VALENCE       SEMI-CORE          CORE           TOTAL
:RTO001:   1        5.328400     1886.173589        0.000000     1891.501989
:RTO002:   2       15.201757      303.902303        0.000000      319.104060
     
       CHARGES OF NEW CHARGE DENSITY
:NTO   : INTERSTITIAL CHARGE =    12.316183
:NPC   : PW Pseudocharge     =    26.919805
:NTO001: CHARGE SPHERE  1    =    10.434285
:NTO002: CHARGE SPHERE  2    =     7.730259

:NEC01: NUCLEAR AND ELECTRONIC CHARGE     90.00000    90.00060
     
       CHARGES OF OLD CHARGE DENSITY
:OTO   : INTERSTITIAL CHARGE =    14.975416
:OPC   : PW Pseudocharge     =    26.829437
:OTO001: CHARGE SPHERE  1    =    10.573056
:OTO002: CHARGE SPHERE  2    =     7.217569

:NEC02: NUCLEAR AND ELECTRONIC CHARGE     90.00000    90.00000
     
       CONVERGENCE TEST
:DTO001: DIFFERENCE IN SPHERE  1 =  0.1977733
:DTO002: DIFFERENCE IN SPHERE  2 =  0.5652122

:DIS  :  CHARGE DISTANCE       ( 0.5652122 for atom    2 spin 1)      0.4427326
 PW Mixed is         2149
 
******************************************************
* MULTISECANT MIXING VER9 RELEASE 10.4.0              *
* Standard Mode with controls                        *
* Fixed density scale                                *
* Regularization       1.000E-04                     *
* Trust Upper Limit    5.000E+00                     *
* Max Number of Memory Steps    8                    *
******************************************************
 
:PWTMP   6.1772E+02  5.7600E+02  7.5905E+02
:PLANE:  PW TOTAL      8.6172 DISTAN   7.76E-01  9.00E+00 %
:CHARG:  CLM/ATOM     80.8866 DISTAN   7.36E-01  9.10E-01 %
 
Step History
        DMIX         DMIXT        Red     Pred      Trust     Lambda    MagRel    MagAbs     Beta
  1   3.5000E-02   3.5000E-02 -1.00E+00  1.00E+00 -1.00E+01  1.00E+00  3.50E-02  3.50E-02  1.00E+00
  2   3.5000E-02   3.5000E-02  7.27E-01  1.00E+00 -1.00E+01  1.00E+00  3.50E-02  1.19E-01  1.00E+00
  3   5.9819E-02   5.9819E-02  9.60E-01  1.00E+00 -1.00E+01  7.78E-02  5.98E-02  1.48E-01  1.00E+00
  4   5.4803E-02   5.4803E-02  8.71E-01  9.93E-01  3.33E-01  1.43E+00  5.46E-02  1.30E-01  9.72E-01
  5   1.3701E-01   4.4529E-02 -1.00E+00  8.17E-01  3.88E-01  1.00E+00  8.73E-02  1.81E-01  1.00E+00
:JACOBIANS    1.099E+00   4.363E-01
  
:NORMS:  1/Froebius, Min, Max, Used   0.6128E+00  0.5654E+00  0.1017E+01  0.6220E+00
:INFO :  Number of Memory Steps    4 Skipping    0
:INFO :  SLambda=    1.6609844161  Max    1.6609844161
:PREDicted Charge, CTotal, PW Trust    3.029E-01   1.564E+00   1.321E+00
:PREDicted DMix, Beta, BLim   5.4581E-01  1.5297E+00  1.9306E+00

Eigenvalues, unscaled except for SY+YY
   #     SY Real        SY Imag          SS             YY         SY+YY Real      SY+YY Imag
   1   1.590108E+00   0.000000E+00   1.180767E+00   3.257583E+00   5.761525E+00   0.000000E+00
   2   5.386222E-01   0.000000E+00   3.208037E-01   7.417306E-01   1.773636E+00   0.000000E+00
   3  -6.168348E-16   0.000000E+00   5.723598E-04   6.684861E-04   1.885122E-05   0.000000E+00
   4   6.039802E-04   0.000000E+00   2.655386E-17   1.786638E-05   1.610912E-03   0.000000E+00
 
:INFO :  Singular value  5.778E+00 Weight  1.000E+00 Projection -5.184E-01
:INFO :  Singular value  1.769E+00 Weight  1.000E+00 Projection -1.323E+00
:INFO :  Singular value  1.612E-03 Weight  9.608E-01 Projection -2.606E+01
:INFO :  Singular value  1.884E-05 Weight  3.333E-03 Projection -2.902E-01
:RANK :  ACTIVE   2.96/4  =  74.10 % ; YY RANK   2.81/4  =  70.28 %
 
Increasing CTO by   1.275
:BLIM :  VZERO Control Off
:TRUST:  Step 5.67E-01  Charge 9.08E-02 (e) CTO  4.15E-01 (e) PW  5.01E-01 (e)
:DTRUS:  Lambda    1.246E+01 Increment    7.276E-12 Iterations   135 DMIX    1.208E-01
:INFOA:  Angle SubSpace to MSR1     38.20
:DIRM :  MEMORY  4/8  SCALE   1.000 RED  0.80 PRED  0.82 NEXT  0.71 
:TRAVE:  Charge 6.45E-02 (e) CTO  3.33E-01 (e) PW  2.36E-01 (e)
:DIRP :  |MSR1|= 1.194E-01 |PRATT|= 7.760E-01 ANGLE=   5.5 DEGREES
:DIRQ :  |MSR1|= 2.202E-01 |PRATT|= 1.472E+00 ANGLE=  15.1 DEGREES
:DIRT :  |MSR1|= 2.505E-01 |PRATT|= 1.664E+00 ANGLE=  13.6 DEGREES
:MIX  :   MSE1   REGULARIZATION:  3.26E-04 GREED: 0.31993  LMStep 0.21  0.1506 CTotal         
     
       CHARGES OF MIXED CHARGE DENSITY
:CTO   : INTERSTITIAL CHARGE =    14.560301
:CPC   : PW Pseudocharge     =    26.847894
:CTO001: CHARGE SPHERE  1    =    10.550424
:CTO002: CHARGE SPHERE  2    =     7.298071

:NEC03: NUCLEAR AND ELECTRONIC CHARGE     90.00000    90.00000

PW CHANGE     H    K    L             Current                    Change               Residue
:PTO001:      0    0    0  5.45524034E-02 0.00000000E+00 -5.226E-04  0.000E+00 -3.387E-03  0.000E+00
:PTO002:      0    0   -1 -5.62541621E-10 0.00000000E+00  1.045E-10  0.000E+00  6.166E-10  0.000E+00
:PTO003:     -1    0    0 -3.88726456E-02 0.00000000E+00  2.507E-04  0.000E+00  1.422E-03  0.000E+00
:PTO004:     -1    0   -1  4.45924648E-02-7.72364127E-02 -4.410E-05  7.638E-05 -2.376E-04  4.116E-04
:PTO005:     -1    0    1  2.66600228E-02 4.61765130E-02 -3.933E-05 -6.811E-05 -1.544E-04 -2.674E-04
:PTO006:      0    0   -2 -2.89735449E-10 0.00000000E+00  4.185E-11  0.000E+00  2.506E-10  0.000E+00
:PTO007:     -2    1    0 -1.60501085E-02-2.41173673E-02 -2.298E-05 -1.345E-04 -8.933E-05 -6.407E-04
:PTO008:     -1   -1    0 -1.60501085E-02 2.41173673E-02 -2.298E-05  1.345E-04 -8.933E-05  6.407E-04
:PTO009:     -1    0   -2  3.88346509E-02 6.72635918E-02  1.962E-04  3.399E-04  9.034E-04  1.565E-03
:PTO010:     -1    0    2  1.12176783E-03-1.94295897E-03  1.697E-05 -2.939E-05 -2.158E-05  3.738E-05
:PTO011:     -2    1   -1 -4.76843615E-02-2.61453615E-02 -3.057E-04 -7.867E-05 -1.585E-03 -1.443E-04
:PTO012:     -1   -1   -1  4.64847274E-02 2.82231886E-02  2.210E-04  2.254E-04  9.177E-04  1.301E-03

:ENE  : ********** TOTAL ENERGY IN Ry =        -2644.49330028

       TOTAL FORCE IN mRy/a.u. = |F|     Fx             Fy             Fz     with/without FOR in case.in2
:FOR001:   1.ATOM          3.877          0.000          0.000         -3.877 partial forces
:FOR002:   2.ATOM        686.472       -529.035       -276.927       -338.640 partial forces
       TOTAL FORCE WITH RESPECT TO GLOBAL CARTESIAN COORDINATES:
:FCA001:   1.ATOM                        -3.357         -1.938          0.000 partial forces
:FCA002:   2.ATOM                      -529.035       -276.927       -338.640 partial forces
       TOTAL FORCE WITH RESPECT TO THE GLOBAL COORDINATE SYSTEM:
:FGL001:   1.ATOM                -3.876856211    -3.876856211     0.000000000 partial forces
:FGL002:   2.ATOM              -610.876812952  -582.365510871  -338.640134918 partial forces
 Flat Integration
 New Mode for Coulomb Integral
 Consistent 3/8+Simpson combinations
 Extension of core to zero
 LDM version in phi
 Fifth-order quadrature in outwin


            ---------
:ITE006:  6. ITERATION
            ---------

:NATO :    2 INDEPENDENT AND    9 TOTAL ATOMS IN UNITCELL
       SUBSTANCE: SiO2 for tests                                              

       LATTICE                      = H   
:POT  : POTENTIAL OPTION EX_PBE EC_PBE VX_PBE VC_PBE
:LAT  : LATTICE CONSTANTS=  9.26193  9.26193 10.21737
:VOL  : UNIT CELL VOLUME =     759.05354
       MODE OF CALCULATION IS       = RELA
       NON-SPINPOLARIZED CALCULATION
:IFFT  : FFT-parameters:   72   72   80 Factor: 2.00


   CONVERGENCE PARAMETER FOR PSEUDOCHARGE: NCON=  9
   MAXIMAL VALUE OF RMT(JATOM)*ABSK(NKK) : RK  =19.43469


:VKCOUL :  VK-COUL convergence: 0.340E-05
       ATOMNUMBER=  1 Si         VCOUL-ZERO = -0.14522E+01
:EFG001:                        EFG         =     0.20901   *10**21  V / m**2
                               V20  TOT/SRF=     0.18101    -0.00814
                               V22  TOT/SRF=     0.04119    -0.00146
                               V22M TOT/SRF=     0.04686    -0.01368
                               V21  TOT/SRF=     0.00000     0.00000
                               V21M TOT/SRF=     0.00000     0.00000

             -0.06331    0.04686    0.00000       -0.04212    0.00000    0.00000
              0.04686   -0.14569    0.00000        0.00000   -0.16689    0.00000
              0.00000    0.00000    0.20901        0.00000    0.00000    0.20901

         MAIN DIRECTIONS OF THE EFG   1.0000 -0.4524  0.0000
                                      0.4524  1.0000  0.0000
                                      0.0000  0.0000  1.0000
:ANG001:  ANGLE WITH OLD X-AXIS =        24.3

:ETA001:                         ASYMM. ETA =     0.59698


       ATOMNUMBER=  2 O          VCOUL-ZERO = -0.16395E-01
:EFG002:                        EFG         =     5.13441   *10**21  V / m**2
                               V20  TOT/SRF=     0.05999     0.02437
                               V22  TOT/SRF=     1.02837     0.58639
                               V22M TOT/SRF=    -2.22630    -1.29190
                               V21  TOT/SRF=    -2.78327    -1.59008
                               V21M TOT/SRF=     2.50012     1.39951

              0.99374   -2.22630   -2.78327        5.13441    0.00000    0.00000
             -2.22630   -1.06301    2.50012        0.00000   -2.07411    0.00000
             -2.78327    2.50012    0.06927        0.00000    0.00000   -3.06029

         MAIN DIRECTIONS OF THE EFG   1.0000  1.0000  0.0018
                                     -0.7253  0.5355  1.0000
                                     -0.9075  0.6739 -0.7973
:ANG002:  ANGLE WITH OLD X-AXIS =        45.0

:ETA002:                         ASYMM. ETA =     0.19207


     HELLMANN-FEYNMAN-FORCE IN mRy/a.u. = |F|  Fx       Fy             Fz
:FHF001:   1.ATOM      8.779764415692      0.000000000000      0.000000000000     -8.779764415692

     HELLMANN-FEYNMAN-FORCE IN mRy/a.u. = |F|  Fx       Fy             Fz
:FHF002:   2.ATOM    873.285175681042   -670.545805873696   -358.140804295627   -429.802843857442

:FIT001: LUSE= 13 SIGMA OF V-XC FIT FOR ATOM  1  0.1052283E-01
:FIT001: LUSE= 13 SIGMA OF V-XC FIT FOR ATOM  1  0.1052283E-01
:FIT002: LUSE= 13 SIGMA OF V-XC FIT FOR ATOM  2  0.9427724E-03
:FIT002: LUSE= 13 SIGMA OF V-XC FIT FOR ATOM  2  0.9427724E-03
:DEN  : DENSITY INTEGRAL  =         -1220.96722885   (Ry)
       ELS_POTENTIAL_AT Z=0 and Z=0.5:   0.05161  -0.09477
       ELS_POTENTIAL_AT Y=0 and Y=0.5:   0.00000   0.00000
[...]
:DIRP :  |MSR1|= 1.114E-03 |PRATT|= 1.890E-03 ANGLE=   5.3 DEGREES
:DIRQ :  |MSR1|= 1.146E-03 |PRATT|= 1.624E-03 ANGLE=   9.9 DEGREES
:DIRT :  |MSR1|= 1.598E-03 |PRATT|= 2.492E-03 ANGLE=   9.3 DEGREES
:MIX  :   MSE1   REGULARIZATION:  5.12E-04 GREED: 0.29201  Newton 1.00  0.6412                
     
       CHARGES OF MIXED CHARGE DENSITY
:CTO   : INTERSTITIAL CHARGE =    13.599255
:CPC   : PW Pseudocharge     =    26.468095
:CTO001: CHARGE SPHERE  1    =    10.495448
:CTO002: CHARGE SPHERE  2    =     7.485734

:NEC03: NUCLEAR AND ELECTRONIC CHARGE     90.00000    90.00000

PW CHANGE     H    K    L             Current                    Change               Residue
:PTO001:      0    0    0  5.27859345E-02 0.00000000E+00 -4.785E-06  0.000E+00 -7.217E-06  0.000E+00
:PTO002:      0    0   -1 -4.92078240E-11 0.00000000E+00 -4.835E-13  0.000E+00 -8.464E-13  0.000E+00
:PTO003:     -1    0    0 -3.84371663E-02 0.00000000E+00  1.362E-06  0.000E+00  2.252E-06  0.000E+00
:PTO004:     -1    0   -1  4.44389491E-02-7.69705158E-02 -4.872E-06  8.438E-06 -7.861E-06  1.362E-05
:PTO005:     -1    0    1  2.66890830E-02 4.62268466E-02 -2.383E-06 -4.128E-06 -3.900E-06 -6.755E-06
:PTO006:      0    0   -2 -7.99140010E-11 0.00000000E+00 -2.182E-13  0.000E+00 -3.855E-13  0.000E+00
:PTO007:     -2    1    0 -1.57279259E-02-2.35661583E-02  3.112E-06  2.486E-06  5.200E-06  3.890E-06
:PTO008:     -1   -1    0 -1.57279259E-02 2.35661583E-02  3.112E-06 -2.486E-06  5.200E-06 -3.890E-06
:PTO009:     -1    0   -2  3.76283483E-02 6.51742141E-02 -3.301E-06 -5.717E-06 -4.986E-06 -8.637E-06
:PTO010:     -1    0    2  6.73504776E-04-1.16654455E-03  1.873E-06 -3.243E-06  3.496E-06 -6.055E-06
:PTO011:     -2    1   -1 -4.66804175E-02-2.44812130E-02  3.817E-06  6.191E-07  5.812E-06  1.547E-07
:PTO012:     -1   -1   -1  4.45415606E-02 2.81858218E-02 -2.444E-06 -2.996E-06 -3.040E-06 -4.956E-06

:ENE  : *WARNING** TOTAL ENERGY IN Ry =        -2644.25704852

       TOTAL FORCE IN mRy/a.u. = |F|     Fx             Fy             Fz     with/without FOR in case.in2
:FOR001:   1.ATOM          2.558          0.000          0.000          2.558 partial forces
:FOR002:   2.ATOM        153.471       -118.741        -62.002        -74.898 partial forces
       TOTAL FORCE WITH RESPECT TO GLOBAL CARTESIAN COORDINATES:
:FCA001:   1.ATOM                         2.216          1.279          0.000 partial forces
:FCA002:   2.ATOM                      -118.741        -62.002        -74.898 partial forces
       TOTAL FORCE WITH RESPECT TO THE GLOBAL COORDINATE SYSTEM:
:FGL001:   1.ATOM                 2.558370455     2.558370455     0.000000000 partial forces
:FGL002:   2.ATOM              -137.110444488  -130.557013601   -74.898360912 partial forces
 Flat Integration
 New Mode for Coulomb Integral
 Consistent 3/8+Simpson combinations
 Extension of core to zero
 LDM version in phi
 Fifth-order quadrature in outwin


            ---------
:ITE012: 12. ITERATION
            ---------

:NATO :    2 INDEPENDENT AND    9 TOTAL ATOMS IN UNITCELL
       SUBSTANCE: SiO2 for tests                                              

       LATTICE                      = H   
:POT  : POTENTIAL OPTION EX_PBE EC_PBE VX_PBE VC_PBE
:LAT  : LATTICE CONSTANTS=  9.26193  9.26193 10.21737
:VOL  : UNIT CELL VOLUME =     759.05354
       MODE OF CALCULATION IS       = RELA
       NON-SPINPOLARIZED CALCULATION
:IFFT  : FFT-parameters:   72   72   80 Factor: 2.00


   CONVERGENCE PARAMETER FOR PSEUDOCHARGE: NCON=  9
   MAXIMAL VALUE OF RMT(JATOM)*ABSK(NKK) : RK  =19.43469


:VKCOUL :  VK-COUL convergence: 0.341E-05
       ATOMNUMBER=  1 Si         VCOUL-ZERO = -0.14537E+01
:EFG001:                        EFG         =     0.77690   *10**21  V / m**2
                               V20  TOT/SRF=     0.67282     0.03432
                               V22  TOT/SRF=     0.18586     0.00548
                               V22M TOT/SRF=     0.17946    -0.00600
                               V21  TOT/SRF=     0.00000     0.00000
                               V21M TOT/SRF=     0.00000     0.00000

             -0.20259    0.17946    0.00000       -0.13009    0.00000    0.00000
              0.17946   -0.57432    0.00000        0.00000   -0.64682    0.00000
              0.00000    0.00000    0.77690        0.00000    0.00000    0.77690

         MAIN DIRECTIONS OF THE EFG   1.0000 -0.4040  0.0000
                                      0.4040  1.0000  0.0000
                                      0.0000  0.0000  1.0000
:ANG001:  ANGLE WITH OLD X-AXIS =        22.0

:ETA001:                         ASYMM. ETA =     0.66512


       ATOMNUMBER=  2 O          VCOUL-ZERO =  0.53153E-01
:EFG002:                        EFG         =     7.67464   *10**21  V / m**2
                               V20  TOT/SRF=     0.11070     0.02533
                               V22  TOT/SRF=     1.55501     0.57285
                               V22M TOT/SRF=    -3.26485    -1.26612
                               V21  TOT/SRF=    -4.16290    -1.55600
                               V21M TOT/SRF=     3.79477     1.36717

              1.49110   -3.26485   -4.16290        7.67464    0.00000    0.00000
             -3.26485   -1.61893    3.79477        0.00000   -3.03454    0.00000
             -4.16290    3.79477    0.12783        0.00000    0.00000   -4.64010

         MAIN DIRECTIONS OF THE EFG   1.0000  1.0000 -0.0194
                                     -0.7255  0.5515  1.0000
                                     -0.9164  0.6546 -0.8128
:ANG002:  ANGLE WITH OLD X-AXIS =        45.0

:ETA002:                         ASYMM. ETA =     0.20920


     HELLMANN-FEYNMAN-FORCE IN mRy/a.u. = |F|  Fx       Fy             Fz
:FHF001:   1.ATOM     25.584502270203      0.000000000000      0.000000000000     25.584502270203

     HELLMANN-FEYNMAN-FORCE IN mRy/a.u. = |F|  Fx       Fy             Fz
:FHF002:   2.ATOM    495.981874094384   -381.807193442643   -198.922147890664   -246.274776508262

:FIT001: LUSE= 13 SIGMA OF V-XC FIT FOR ATOM  1  0.1626507E-01
:FIT001: LUSE= 13 SIGMA OF V-XC FIT FOR ATOM  1  0.1626507E-01
:FIT002: LUSE= 13 SIGMA OF V-XC FIT FOR ATOM  2  0.4788335E-03
:FIT002: LUSE= 13 SIGMA OF V-XC FIT FOR ATOM  2  0.4788335E-03
:DEN  : DENSITY INTEGRAL  =         -1225.81014032   (Ry)
       ELS_POTENTIAL_AT Z=0 and Z=0.5:   0.05835  -0.10459
       ELS_POTENTIAL_AT Y=0 and Y=0.5:   0.00000   0.00000
:VZERO:v0,v0c,v0x  -0.62115   0.05835  -0.67950 v5,v5c,v5x  -0.73874  -0.10459  -0.63415
:VZERY:v0,v0c,v0x  -0.65986   0.00000  -0.65986 v5,v5c,v5x  -0.65986   0.00000  -0.65986
:VZERX:v0,v0c,v0x  -0.13558   0.21043  -0.34601 v5,v5c,v5x  -2.51141  -1.64605  -0.86535
:LMAX-WF:   10   Non-Spherical LMAX:   4

          ATOMIC SPHERE DEPENDENT PARAMETERS FOR ATOM  Si        
:e__0001: OVERALL ENERGY PARAMETER IS   -0.1026
          OVERALL BASIS SET ON ATOM IS LAPW
:E0_0001: E( 0)=   -0.1026
             APW+lo
:E1_0001: E( 1)=   -0.1026
             APW+lo

          ATOMIC SPHERE DEPENDENT PARAMETERS FOR ATOM  O         
:e__0002: OVERALL ENERGY PARAMETER IS   -0.1026
          OVERALL BASIS SET ON ATOM IS LAPW
:E0_0002: E( 0)=    0.2974
             APW+lo
:E0_0002: E( 0)=   -1.0306   E(BOTTOM)=   -2.360   E(TOP)=    0.299  1  2   234
             LOCAL ORBITAL
:E1_0002: E( 1)=   -0.1026
             APW+lo
:WARN  : P(J,JATOM) almost zero (     -0.410E-03). Shifted Energy by -0.01 down to     0.2874

       K=   0.00000   0.00000   0.00000            1
:RKM  : MATRIX SIZE  1625LOs:  42  RKM= 6.97  WEIGHT= 1.00  PGR:    
       EIGENVALUES ARE:
:EIG00001:      -1.3309401   -1.2179222   -1.2179222   -1.1696087   -1.1674358
:EIG00006:      -1.1674358   -0.5068285   -0.5068285   -0.2999535   -0.2970704
:EIG00011:      -0.2848431   -0.2848431   -0.1184222   -0.1184222   -0.1000760
:EIG00016:      -0.0818417   -0.0102034   -0.0102034   -0.0082723    0.0243545
:EIG00021:       0.0243545    0.0471269    0.0757030    0.0757030    0.5421060
:EIG00026:       0.7849317    0.7849317    0.8209393    0.8209393    0.9112921
:EIG00031:       0.9610708    1.0028632    1.0324180    1.0324181    1.0840936
:EIG00036:       1.0840936    1.1398652    1.1991510    1.2039427    1.2039427
:EIG00041:       1.2086554    1.2086554    1.3281768    1.3281768    1.4187374
:EIG00046:       1.4692716    1.4692716    1.5706943    1.5706943
 
       ********************************************************

:KPT   :      NUMBER OF K-POINTS:    94
       Insulator, EF-inconsistency corrected
:GAP (global)   :  0.443793 Ry =     6.038 eV (accurate value if proper k-mesh)
         Bandranges (emin - emax) and occupancy:
:BAN00014:  14   -0.136297   -0.095846  2.00000000
:BAN00015:  15   -0.112150   -0.078467  2.00000000
:BAN00016:  16   -0.081842   -0.049305  2.00000000
:BAN00017:  17   -0.059650   -0.010203  2.00000000
:BAN00018:  18   -0.040352   -0.010203  2.00000000
:BAN00019:  19   -0.035073    0.024358  2.00000000
:BAN00020:  20   -0.013727    0.026613  2.00000000
:BAN00021:  21    0.009753    0.034188  2.00000000
:BAN00022:  22    0.035008    0.082242  2.00000000
:BAN00023:  23    0.052072    0.089422  2.00000000
:BAN00024:  24    0.061277    0.098313  2.00000000
:BAN00025:  25    0.542106    0.762540  0.00000000
:BAN00026:  26    0.686128    0.812364  0.00000000
:BAN00027:  27    0.766059    0.827917  0.00000000
:BAN00028:  28    0.782052    0.860463  0.00000000
:BAN00029:  29    0.815739    0.878920  0.00000000
        Energy to separate low and high energystates:   -0.63732


:NOE  : NUMBER OF ELECTRONS          =   48.000

:FER  : F E R M I - ENERGY(TETRAH.M.)=   0.0983131071
:GMA  : POTENTIAL AND CHARGE CUT-OFF  12.00 Ry**.5

:POS001: ATOM   -1 X,Y,Z = 0.46913 0.46913 0.50000  MULT= 3  ZZ= 14.000  Si        

       LMMAX 25
       LM=   0 0  1 0  2 0  2 2 -2 2  3 0  3 2 -3 2  4 0  4 2 -4 2  4 4 -4 4  5 0  5 2 -5 2  5 4
        -5 4  6 0  6 2 -6 2  6 4 -6 4  6 6 -6 6

:CHA001: TOTAL VALENCE CHARGE INSIDE SPHERE   1 =   0.5715    (RMT=  1.4000 )
:PCS001: PARTIAL CHARGES SPHERE =  1 S,P,D,F,PX,PY,PZ,D-Z2,D-X2Y2,D-XY,D-XZ,D-YZ 
:QTL001: 0.1979 0.2594 0.1046 0.0082 0.0870 0.0882 0.0841 0.0126 0.0167 0.0232 0.0264 0.0256
        Q-s-low E-s-low   Q-p-low E-p-low   Q-d-low E-d-low   Q-f-low E-f-low
:EPL001:  0.0556 -1.2698    0.0482 -1.1884    0.0142 -1.1884    0.0016 -1.2358
        Q-s-hi  E-s-hi    Q-p-hi  E-p-hi    Q-d-hi  E-d-hi    Q-f-hi  E-f-hi 
:EPH001:  0.1423 -0.4352    0.2112 -0.2695    0.0904 -0.1153    0.0066 -0.0887

                      QXX         QXY         QYY         QZZ       UP TO R
:VZZ001:            -0.19413     0.19317    -0.55972     0.75385       1.400

:POS002: ATOM   -2 X,Y,Z = 0.14451 0.41337 0.61807  MULT= 6  ZZ=  8.000  O         

       LMMAX 49

:CHA002: TOTAL VALENCE CHARGE INSIDE SPHERE   2 =   5.4819    (RMT=  1.6200 )
:PCS002: PARTIAL CHARGES SPHERE =  2 S,P,D,F,PX,PY,PZ,D-Z2,D-X2Y2,D-XY,D-XZ,D-YZ 
:QTL002: 1.5832 3.8791 0.0148 0.0043 1.2867 1.3003 1.2921 0.0024 0.0032 0.0027 0.0032 0.0032
        Q-s-low E-s-low   Q-p-low E-p-low   Q-d-low E-d-low   Q-f-low E-f-low
:EPL002:  1.5079 -1.2108    0.0200 -1.2243    0.0041 -1.2228    0.0004 -1.2144
        Q-s-hi  E-s-hi    Q-p-hi  E-p-hi    Q-d-hi  E-d-hi    Q-f-hi  E-f-hi 
:EPH002:  0.0753 -0.2127    3.8590 -0.1151    0.0107 -0.1944    0.0040 -0.1836

                      QXX         QXY         QYY         QZZ       UP TO R
:VZZ002:             0.86912    -1.85356    -0.96474     0.09563       1.620

:CHA  : TOTAL VALENCE CHARGE INSIDE UNIT CELL =      48.000000

:SUM  : SUM OF EIGENVALUES =         -19.344817546


        1.ATOM      Si                    4 CORE STATES
       CORE-FORCE in mRy/a.u. = |F|      Fx             Fy             Fz
:FCO001:   1.ATOM     22.979192189325      0.000000000000      0.000000000000    -22.979192189325

:1S 001: 1S                -130.616515029 Ry
:2S 001: 2S                  -9.613119158 Ry
:2PP001: 2P*                 -6.415177726 Ry
:2P 001: 2P                  -6.367670494 Ry

        2.ATOM      O                     1 CORE STATES
       CORE-FORCE in mRy/a.u. = |F|      Fx             Fy             Fz
:FCO002:   2.ATOM    344.673281455272    264.635260623384    138.004619480596    172.402363052119

:1S 002: 1S                 -36.901765665 Ry
:CINT001 Core Integral Atom   1    9.923980
:CINT002 Core Integral Atom   2    2.003721

       DENSITY AT NUCLEUS
        JATOM        VALENCE       SEMI-CORE          CORE           TOTAL
:RTO001:   1        5.897729     1886.365892        0.000000     1892.263621
:RTO002:   2       14.552106      304.029886        0.000000      318.581992
     
       CHARGES OF NEW CHARGE DENSITY
:NTO   : INTERSTITIAL CHARGE =    13.600397
:NPC   : PW Pseudocharge     =    26.467289
:NTO001: CHARGE SPHERE  1    =    10.495503
:NTO002: CHARGE SPHERE  2    =     7.485619

:NEC01: NUCLEAR AND ELECTRONIC CHARGE     90.00000    90.00062
     
       CHARGES OF OLD CHARGE DENSITY
:OTO   : INTERSTITIAL CHARGE =    13.599255
:OPC   : PW Pseudocharge     =    26.468095
:OTO001: CHARGE SPHERE  1    =    10.495448
:OTO002: CHARGE SPHERE  2    =     7.485734

:NEC02: NUCLEAR AND ELECTRONIC CHARGE     90.00000    90.00000
     
       CONVERGENCE TEST
:DTO001: DIFFERENCE IN SPHERE  1 =  0.0001395
:DTO002: DIFFERENCE IN SPHERE  2 =  0.0002102

:DIS  :  CHARGE DISTANCE       ( 0.0002102 for atom    2 spin 1)      0.0001866
 PW Mixed is         2149
 
******************************************************
* MULTISECANT MIXING VER9 RELEASE 10.4.0              *
* Standard Mode with controls                        *
* Fixed density scale                                *
* Regularization       1.000E-04                     *
* Trust Upper Limit    5.000E+00                     *
* Max Number of Memory Steps    8                    *
******************************************************
 
:PWTMP   6.1772E+02  5.7600E+02  7.5905E+02
:PLANE:  PW TOTAL      8.2442 DISTAN   8.10E-04  9.83E-03 %
:CHARG:  CLM/ATOM     80.7736 DISTAN   3.09E-04  3.83E-04 %
 
Step History
        DMIX         DMIXT        Red     Pred      Trust     Lambda    MagRel    MagAbs     Beta
  4   5.4803E-02   5.4803E-02  8.71E-01  9.93E-01  3.33E-01  1.43E+00  5.46E-02  1.30E-01  9.72E-01
  5   1.3701E-01   4.4529E-02  8.04E-01  8.17E-01  3.88E-01  1.66E+00  8.73E-02  1.81E-01  1.00E+00
  6   3.1993E-01   1.2076E-01  7.02E-01  7.09E-01  5.67E-01  1.93E+00  1.51E-01  2.50E-01  1.00E+00
  7   3.5000E-01   2.3049E-01  5.35E-01  5.61E-01  9.98E-01  1.26E+00  3.49E-01  4.08E-01  1.00E+00
  8   3.5000E-01   3.4999E-01  1.15E-01  1.54E-01  2.54E+00  1.40E+00  1.00E+00  6.25E-01  1.00E+00
  9   2.3419E-01   2.3419E-01  6.30E-01  8.36E-01  8.20E+00  1.05E+00  3.35E-01  2.41E-02  1.00E+00
 10   3.5000E-01   3.5000E-01  1.45E-01  2.61E-01  1.09E+01  1.40E+00  9.43E-01  4.28E-02  1.00E+00
 11   2.8799E-01   2.8799E-01  3.80E-01  4.53E-01  1.46E+01  1.24E+00  8.07E-01  5.30E-03  1.00E+00
 12   2.9201E-01   2.9201E-01 -1.00E+00  5.29E-01  1.94E+01  1.00E+00  6.41E-01  1.60E-03  9.69E-01
:JACOBIANS    2.045E+00   2.285E+00
  
:NORMS:  1/Froebius, Min, Max, Used   0.8686E+00  0.7408E+00  0.1057E+01  0.8686E+00
:INFO :  Number of Memory Steps    8 Skipping    3
:INFO :  SLambda=    1.2026848538  Max    1.2026848538
:PREDicted Charge, CTotal, PW Trust    8.709E-05   4.383E-04   4.008E-03
:PREDicted DMix, Beta, BLim   5.4510E-01  1.2817E+00  1.7921E+01

Eigenvalues, unscaled except for SY+YY
   #     SY Real        SY Imag          SS             YY         SY+YY Real      SY+YY Imag
   1   2.915845E+00   0.000000E+00   3.176792E+00   4.300970E+00   7.757725E+00   0.000000E+00
   2   1.796656E+00   0.000000E+00   1.777892E+00   1.859030E+00   4.018779E+00   0.000000E+00
   3   8.882711E-01   0.000000E+00   7.798200E-01   1.060422E+00   2.138003E+00   0.000000E+00
   4   3.594092E-01   0.000000E+00   2.289731E-01   5.238656E-01   9.780165E-01   0.000000E+00
   5   1.482318E-01   0.000000E+00   6.772886E-02   2.483903E-01   4.465147E-01   0.000000E+00
   6   5.935704E-03   0.000000E+00   4.317549E-03   7.295608E-03   1.457083E-02   0.000000E+00
   7   1.727677E-06   0.000000E+00   6.530305E-06   2.398724E-05   4.567030E-06   0.000000E+00
   8   1.156487E-05   0.000000E+00   1.128080E-06   2.498264E-06   3.764374E-05   0.000000E+00
 
:INFO :  Singular value  7.793E+00 Weight  1.000E+00 Projection -9.052E-05
:INFO :  Singular value  4.012E+00 Weight  1.000E+00 Projection -5.408E-06
:INFO :  Singular value  2.135E+00 Weight  1.000E+00 Projection -5.385E-04
:INFO :  Singular value  9.775E-01 Weight  1.000E+00 Projection  4.985E-04
:INFO :  Singular value  4.461E-01 Weight  1.000E+00 Projection -9.682E-04
:INFO :  Singular value  1.457E-02 Weight  9.991E-01 Projection -1.916E-03
:INFO :  Singular value  3.765E-05 Weight  7.606E-03 Projection  7.327E-04
:INFO :  Singular value  4.566E-06 Weight  1.127E-04 Projection -2.103E-05
:RANK :  ACTIVE   6.01/8  =  75.09 % ; YY RANK   6.00/8  =  75.00 %
 
:BLIM :  VZERO Control Off
:TRUST:  Step 2.25E+01  Charge 9.37E-02 (e) CTO  4.39E-01 (e) PW  5.18E-01 (e)
:DIRM :  MEMORY  8/8  SCALE   1.000 RED  0.41 PRED  0.53 NEXT  0.57 
:TRAVE:  Charge 3.12E-03 (e) CTO  1.62E-02 (e) PW  1.65E-02 (e)
:DIRP :  |MSR1|= 6.051E-04 |PRATT|= 8.101E-04 ANGLE=   8.5 DEGREES
:DIRQ :  |MSR1|= 3.837E-04 |PRATT|= 6.184E-04 ANGLE=  33.2 DEGREES
:DIRT :  |MSR1|= 7.165E-04 |PRATT|= 1.019E-03 ANGLE=  20.6 DEGREES
:MIX  :   MSE1   REGULARIZATION:  4.30E-04 GREED: 0.33919  Newton 1.00  0.7030                
     
       CHARGES OF MIXED CHARGE DENSITY
:CTO   : INTERSTITIAL CHARGE =    13.599438
:CPC   : PW Pseudocharge     =    26.466557
:CTO001: CHARGE SPHERE  1    =    10.495484
:CTO002: CHARGE SPHERE  2    =     7.485685

:NEC03: NUCLEAR AND ELECTRONIC CHARGE     90.00000    90.00000

PW CHANGE     H    K    L             Current                    Change               Residue
:PTO001:      0    0    0  5.27841498E-02 0.00000000E+00 -1.785E-06  0.000E+00 -1.965E-06  0.000E+00
:PTO002:      0    0   -1 -4.94742180E-11 0.00000000E+00 -2.664E-13  0.000E+00 -3.617E-13  0.000E+00
:PTO003:     -1    0    0 -3.84354766E-02 0.00000000E+00  1.690E-06  0.000E+00  2.995E-06  0.000E+00
:PTO004:     -1    0   -1  4.44364850E-02-7.69662478E-02 -2.464E-06  4.268E-06 -3.057E-06  5.296E-06
:PTO005:     -1    0    1  2.66875721E-02 4.62242296E-02 -1.511E-06 -2.617E-06 -2.108E-06 -3.650E-06
:PTO006:      0    0   -2 -8.00371484E-11 0.00000000E+00 -1.231E-13  0.000E+00 -1.655E-13  0.000E+00
:PTO007:     -2    1    0 -1.57267220E-02-2.35653134E-02  1.204E-06  8.450E-07  1.164E-06  9.761E-07
:PTO008:     -1   -1    0 -1.57267220E-02 2.35653134E-02  1.204E-06 -8.450E-07  1.164E-06 -9.761E-07
:PTO009:     -1    0   -2  3.76272347E-02 6.51722854E-02 -1.114E-06 -1.929E-06 -1.337E-06 -2.316E-06
:PTO010:     -1    0    2  6.74513082E-04-1.16829098E-03  1.008E-06 -1.746E-06  1.056E-06 -1.829E-06
:PTO011:     -2    1   -1 -4.66788144E-02-2.44816157E-02  1.603E-06 -4.026E-07  2.238E-06 -6.753E-07
:PTO012:     -1   -1   -1  4.45411077E-02 2.81842322E-02 -4.529E-07 -1.590E-06 -5.340E-07 -2.275E-06

:ENE  : *WARNING** TOTAL ENERGY IN Ry =        -2644.25706325

       TOTAL FORCE IN mRy/a.u. = |F|     Fx             Fy             Fz     with/without FOR in case.in2
:FOR001:   1.ATOM          2.605          0.000          0.000          2.605 partial forces
:FOR002:   2.ATOM        151.319       -117.172        -60.918        -73.872 partial forces
       TOTAL FORCE WITH RESPECT TO GLOBAL CARTESIAN COORDINATES:
:FCA001:   1.ATOM                         2.256          1.303          0.000 partial forces
:FCA002:   2.ATOM                      -117.172        -60.918        -73.872 partial forces
       TOTAL FORCE WITH RESPECT TO THE GLOBAL COORDINATE SYSTEM:
:FGL001:   1.ATOM                 2.605310081     2.605310081     0.000000000 partial forces
:FGL002:   2.ATOM              -135.298493909  -128.566775365   -73.872413456 partial forces
