
:LABEL1: Calculations in /home/cmueller/wien/FZU/src/quartz/1500k_a
:LABEL2: on cv036 at Wed Jun 12 02:54:50 PM CEST 2024
:LABEL3: using WIEN2k_19.1 (Release 25/6/2019) in /home/cmueller/WIENROOT
:LABEL4: using the command: run_lapw
 Flat Integration
 New Mode for Coulomb Integral
 Consistent 3/8+Simpson combinations
 Extension of core to zero
 LDM version in phi
 Fifth-order quadrature in outwin


            ---------
:ITE001:  1. ITERATION
            ---------

:NATO :    2 INDEPENDENT AND    9 TOTAL ATOMS IN UNITCELL
       SUBSTANCE: SiO2 for tests                                              

       LATTICE                      = H   
:POT  : POTENTIAL OPTION EX_PBE EC_PBE VX_PBE VC_PBE
:LAT  : LATTICE CONSTANTS=  9.26193  9.26193 10.21737
:VOL  : UNIT CELL VOLUME =     759.05354
       MODE OF CALCULATION IS       = RELA
       NON-SPINPOLARIZED CALCULATION
:IFFT  : FFT-parameters:   72   72   80 Factor: 2.00


   CONVERGENCE PARAMETER FOR PSEUDOCHARGE: NCON=  9
   MAXIMAL VALUE OF RMT(JATOM)*ABSK(NKK) : RK  =19.43469


:VKCOUL :  VK-COUL convergence: 0.439E-05
       ATOMNUMBER=  1 Si         VCOUL-ZERO = -0.14366E+01
:EFG001:                        EFG         =     0.02023   *10**21  V / m**2
                               V20  TOT/SRF=    -0.01366    -0.01576
                               V22  TOT/SRF=     0.00026     0.00378
                               V22M TOT/SRF=    -0.01234    -0.02031
                               V21  TOT/SRF=     0.00000     0.00000
                               V21M TOT/SRF=     0.00000     0.00000

              0.00815   -0.01234    0.00000        0.02023    0.00000    0.00000
             -0.01234    0.00762    0.00000        0.00000   -0.00446    0.00000
              0.00000    0.00000   -0.01577        0.00000    0.00000   -0.01577

         MAIN DIRECTIONS OF THE EFG   1.0000  0.9788  0.0000
                                     -0.9788  1.0000  0.0000
                                      0.0000  0.0000  1.0000
:ANG001:  ANGLE WITH OLD X-AXIS =        44.4

:ETA001:                         ASYMM. ETA =     0.55936


       ATOMNUMBER=  2 O          VCOUL-ZERO = -0.80426E-01
:EFG002:                        EFG         =     2.34022   *10**21  V / m**2
                               V20  TOT/SRF=     0.01775     0.02253
                               V22  TOT/SRF=     0.46621     0.58167
                               V22M TOT/SRF=    -1.03110    -1.28760
                               V21  TOT/SRF=    -1.27074    -1.58634
                               V21M TOT/SRF=     1.11976     1.39844

              0.45596   -1.03110   -1.27074        2.34022    0.00000    0.00000
             -1.03110   -0.47646    1.11976        0.00000   -0.96512    0.00000
             -1.27074    1.11976    0.02049        0.00000    0.00000   -1.37510

         MAIN DIRECTIONS OF THE EFG   1.0000  1.0000  0.0171
                                     -0.7225  0.5266  1.0000
                                     -0.8966  0.6910 -0.7868
:ANG002:  ANGLE WITH OLD X-AXIS =        45.0

:ETA002:                         ASYMM. ETA =     0.17519


     HELLMANN-FEYNMAN-FORCE IN mRy/a.u. = |F|  Fx       Fy             Fz
:FHF001:   1.ATOM      0.660338428314      0.000000000000      0.000000000000     -0.660338428314

     HELLMANN-FEYNMAN-FORCE IN mRy/a.u. = |F|  Fx       Fy             Fz
:FHF002:   2.ATOM   1081.743219788848   -835.469666171216   -428.244727353585   -537.368852801085

:FIT001: LUSE= 13 SIGMA OF V-XC FIT FOR ATOM  1  0.7083896E-02
:FIT001: LUSE= 13 SIGMA OF V-XC FIT FOR ATOM  1  0.7083896E-02
:FIT002: LUSE= 13 SIGMA OF V-XC FIT FOR ATOM  2  0.1340515E-02
:FIT002: LUSE= 13 SIGMA OF V-XC FIT FOR ATOM  2  0.1340515E-02
:DEN  : DENSITY INTEGRAL  =         -1213.65209575   (Ry)
       ELS_POTENTIAL_AT Z=0 and Z=0.5:   0.04924  -0.09870
       ELS_POTENTIAL_AT Y=0 and Y=0.5:   0.00000   0.00000
:VZERO:v0,v0c,v0x  -0.68174   0.04924  -0.73098 v5,v5c,v5x  -0.78851  -0.09870  -0.68981
:VZERY:v0,v0c,v0x  -0.70684   0.00000  -0.70684 v5,v5c,v5x  -0.70684   0.00000  -0.70684
:VZERX:v0,v0c,v0x  -0.19278   0.24115  -0.43394 v5,v5c,v5x  -2.60401  -1.66125  -0.94276
:LMAX-WF:   10   Non-Spherical LMAX:   4

          ATOMIC SPHERE DEPENDENT PARAMETERS FOR ATOM  Si        
:e__0001: OVERALL ENERGY PARAMETER IS    0.3000
          OVERALL BASIS SET ON ATOM IS LAPW
:E0_0001: E( 0)=    0.3000
             APW+lo
:E1_0001: E( 1)=    0.3000
             APW+lo

          ATOMIC SPHERE DEPENDENT PARAMETERS FOR ATOM  O         
:e__0002: OVERALL ENERGY PARAMETER IS    0.3000
          OVERALL BASIS SET ON ATOM IS LAPW
:E0_0002: E( 0)=    0.7000
             APW+lo
:E0_0002: E( 0)=   -1.3125   E(BOTTOM)=   -2.596   E(TOP)=   -0.029  1  2   227
             LOCAL ORBITAL
:E1_0002: E( 1)=    0.3000
             APW+lo

       K=   0.00000   0.00000   0.00000            1
:RKM  : MATRIX SIZE  1625LOs:  42  RKM= 6.97  WEIGHT= 1.00  PGR:    
       EIGENVALUES ARE:
:EIG00001:      -1.5337335   -1.4411529   -1.4411529   -1.4032324   -1.4020544
:EIG00006:      -1.4020544   -0.6733388   -0.6733388   -0.4965059   -0.4916903
:EIG00011:      -0.4798361   -0.4798361   -0.3064939   -0.3064939   -0.2950819
:EIG00016:      -0.2783848   -0.2312958   -0.2312958   -0.2287494   -0.1966308
:EIG00021:      -0.1966308   -0.1787817   -0.1550107   -0.1550107    0.4492100
:EIG00026:       0.7232531    0.7232531    0.7386762    0.7386762    0.8434397
:EIG00031:       0.8529819    0.9179382    0.9299848    0.9299849    0.9516003
:EIG00036:       0.9516004    1.0301086    1.1219674    1.1340356    1.1340356
:EIG00041:       1.1492873    1.1492873    1.2637802    1.2637802    1.3567079
:EIG00046:       1.4031372    1.4031372    1.5191633    1.5191633    1.6021189
 
:EIG00051:       1.6103445    1.6103445    1.6767738    1.8027086    1.8027086
:EIG00056:       1.8145228    1.8885771    1.9014355    1.9014355    1.9311295
:EIG00061:       1.9986548    1.9986548
       ********************************************************

:KPT   :      NUMBER OF K-POINTS:   143
       Insulator, EF-inconsistency corrected
:GAP (global)   :  0.589686 Ry =     8.023 eV (accurate value if proper k-mesh)
         Bandranges (emin - emax) and occupancy:
:BAN00014:  14   -0.319248   -0.291922  2.00000000
:BAN00015:  15   -0.300718   -0.279996  2.00000000
:BAN00016:  16   -0.281716   -0.254265  2.00000000
:BAN00017:  17   -0.263548   -0.231296  2.00000000
:BAN00018:  18   -0.253133   -0.226445  2.00000000
:BAN00019:  19   -0.244313   -0.198243  2.00000000
:BAN00020:  20   -0.227412   -0.196631  2.00000000
:BAN00021:  21   -0.210065   -0.187652  2.00000000
:BAN00022:  22   -0.189204   -0.156255  2.00000000
:BAN00023:  23   -0.175144   -0.147828  2.00000000
:BAN00024:  24   -0.167005   -0.140476  2.00000000
:BAN00025:  25    0.449210    0.654807  0.00000000
:BAN00026:  26    0.595467    0.723253  0.00000000
:BAN00027:  27    0.687615    0.743419  0.00000000
:BAN00028:  28    0.731487    0.794428  0.00000000
:BAN00029:  29    0.738676    0.798365  0.00000000
        Energy to separate low and high energystates:   -0.78862


:NOE  : NUMBER OF ELECTRONS          =   48.000

:FER  : F E R M I - ENERGY(TETRAH.M.)=  -0.1404761404
:GMA  : POTENTIAL AND CHARGE CUT-OFF  12.00 Ry**.5

:POS001: ATOM   -1 X,Y,Z = 0.46913 0.46913 0.50000  MULT= 3  ZZ= 14.000  Si        

       LMMAX 25
       LM=   0 0  1 0  2 0  2 2 -2 2  3 0  3 2 -3 2  4 0  4 2 -4 2  4 4 -4 4  5 0  5 2 -5 2  5 4
        -5 4  6 0  6 2 -6 2  6 4 -6 4  6 6 -6 6

:CHA001: TOTAL VALENCE CHARGE INSIDE SPHERE   1 =   0.4683    (RMT=  1.4000 )
:PCS001: PARTIAL CHARGES SPHERE =  1 S,P,D,F,PX,PY,PZ,D-Z2,D-X2Y2,D-XY,D-XZ,D-YZ 
:QTL001: 0.1631 0.2089 0.0866 0.0081 0.0703 0.0707 0.0679 0.0096 0.0134 0.0193 0.0225 0.0219
        Q-s-low E-s-low   Q-p-low E-p-low   Q-d-low E-d-low   Q-f-low E-f-low
:EPL001:  0.0426 -1.4842    0.0400 -1.4191    0.0132 -1.4190    0.0017 -1.4569
        Q-s-hi  E-s-hi    Q-p-hi  E-p-hi    Q-d-hi  E-d-hi    Q-f-hi  E-f-hi 
:EPH001:  0.1205 -0.6142    0.1690 -0.4687    0.0734 -0.3427    0.0064 -0.3281

                      QXX         QXY         QYY         QZZ       UP TO R
:VZZ001:            -0.21894     0.19224    -0.34952     0.56846       1.400

:POS002: ATOM   -2 X,Y,Z = 0.14451 0.41337 0.61807  MULT= 6  ZZ=  8.000  O         

       LMMAX 49

:CHA002: TOTAL VALENCE CHARGE INSIDE SPHERE   2 =   5.8956    (RMT=  1.6200 )
:PCS002: PARTIAL CHARGES SPHERE =  2 S,P,D,F,PX,PY,PZ,D-Z2,D-X2Y2,D-XY,D-XZ,D-YZ 
:QTL002: 1.6326 4.2473 0.0117 0.0037 1.4066 1.4260 1.4146 0.0019 0.0026 0.0021 0.0025 0.0026
        Q-s-low E-s-low   Q-p-low E-p-low   Q-d-low E-d-low   Q-f-low E-f-low
:EPL002:  1.5782 -1.4366    0.0179 -1.4457    0.0035 -1.4453    0.0003 -1.4392
        Q-s-hi  E-s-hi    Q-p-hi  E-p-hi    Q-d-hi  E-d-hi    Q-f-hi  E-f-hi 
:EPH002:  0.0543 -0.3922    4.2294 -0.3245    0.0082 -0.4097    0.0034 -0.3893

                      QXX         QXY         QYY         QZZ       UP TO R
:VZZ002:             1.25737    -2.79219    -1.38034     0.12297       1.620

:CHA  : TOTAL VALENCE CHARGE INSIDE UNIT CELL =      48.000000

:SUM  : SUM OF EIGENVALUES =         -29.385392332


        1.ATOM      Si                    4 CORE STATES
       CORE-FORCE in mRy/a.u. = |F|      Fx             Fy             Fz
:FCO001:   1.ATOM      1.783675543869      0.000000000000      0.000000000000     -1.783675543869

:1S 001: 1S                -130.525094101 Ry
:2S 001: 2S                  -9.542215991 Ry
:2PP001: 2P*                 -6.344054225 Ry
:2P 001: 2P                  -6.296687983 Ry

        2.ATOM      O                     1 CORE STATES
       CORE-FORCE in mRy/a.u. = |F|      Fx             Fy             Fz
:FCO002:   2.ATOM    276.523919606015    213.560191266678    109.476952742167    137.376561460472

:1S 002: 1S                 -37.323263231 Ry
:CINT001 Core Integral Atom   1    9.921255
:CINT002 Core Integral Atom   2    2.003890

       DENSITY AT NUCLEUS
        JATOM        VALENCE       SEMI-CORE          CORE           TOTAL
:RTO001:   1        4.830668     1885.991394        0.000000     1890.822061
:RTO002:   2       15.670298      303.971913        0.000000      319.642211
     
       CHARGES OF NEW CHARGE DENSITY
:NTO   : INTERSTITIAL CHARGE =    11.434845
:NPC   : PW Pseudocharge     =    27.021085
:NTO001: CHARGE SPHERE  1    =    10.389532
:NTO002: CHARGE SPHERE  2    =     7.899524

:NEC01: NUCLEAR AND ELECTRONIC CHARGE     90.00000    90.00058
     
       CHARGES OF OLD CHARGE DENSITY
:OTO   : INTERSTITIAL CHARGE =    15.689680
:OPC   : PW Pseudocharge     =    23.640838
:OTO001: CHARGE SPHERE  1    =    10.610239
:OTO002: CHARGE SPHERE  2    =     7.080276

:NEC02: NUCLEAR AND ELECTRONIC CHARGE     90.00000    90.00205
     
       CONVERGENCE TEST
:DTO001: DIFFERENCE IN SPHERE  1 =  0.3177866
:DTO002: DIFFERENCE IN SPHERE  2 =  0.9569995

:DIS  :  CHARGE DISTANCE       ( 0.9569995 for atom    2 spin 1)      0.7439285
 PW Mixed is         2149
 
******************************************************
* MULTISECANT MIXING VER9 RELEASE 10.4.0              *
* Standard Mode with controls                        *
* Fixed density scale                                *
* Regularization       1.000E-04                     *
* Trust Upper Limit    5.000E+00                     *
* Max Number of Memory Steps    8                    *
******************************************************
 
:PWTMP   6.1772E+02  5.7600E+02  7.5905E+02
:PLANE:  PW TOTAL      7.1397 DISTAN   2.36E+00  3.31E+01 %
:CHARG:  CLM/ATOM     80.8997 DISTAN   1.23E+00  1.52E+00 %
 
Step History
        DMIX         DMIXT        Red     Pred      Trust     Lambda    MagRel    MagAbs     Beta
  1   3.5000E-02   3.5000E-02 -1.00E+00  1.00E+00 -1.00E+01  1.00E+00  3.50E-02  3.50E-02  1.00E+00
:INFO :  Note, Pratt in use
:TRUST:  Step 5.25E-02  Charge 7.50E-02 (e) CTO  2.69E-01 (e) PW  3.77E-01 (e)
:DIRM :  MEMORY  0/ 8 SCALE   1.000
Performing Pseudo Compensation
Final Pseudo Compensation Rescaling     9.99810E-01
:MIX  :   PRATT  REGULARIZATION:  1.00E-04 GREED: 0.03500                  
     
       CHARGES OF MIXED CHARGE DENSITY
:CTO   : INTERSTITIAL CHARGE =    15.538759
:CPC   : PW Pseudocharge     =    25.866957
:CTO001: CHARGE SPHERE  1    =    10.602514
:CTO002: CHARGE SPHERE  2    =     7.108950

:NEC03: NUCLEAR AND ELECTRONIC CHARGE     90.00000    90.00000

PW CHANGE     H    K    L             Current                    Change               Residue
:PTO001:      0    0    0  5.45491375E-02 0.00000000E+00  2.741E-03  0.000E+00 -1.148E-03  0.000E+00
:PTO002:      0    0   -1 -7.90179895E-10-8.32744807E-20  2.681E-11 -8.327E-20  7.660E-10  0.000E+00
:PTO003:     -1    0    0 -3.92152762E-02 0.00000000E+00 -4.206E-04  0.000E+00  1.932E-03  0.000E+00
:PTO004:     -1    0   -1  4.40677875E-02-7.63276447E-02  1.452E-03 -2.515E-03  1.417E-03 -2.454E-03
:PTO005:     -1    0    1  2.65809267E-02 4.60395145E-02  3.520E-04  6.097E-04 -9.798E-06 -1.697E-05
:PTO006:      0    0   -2 -3.63891495E-10 1.49591624E-19 -3.137E-11  1.496E-19  2.510E-10  0.000E+00
:PTO007:     -2    1    0 -1.55785606E-02-2.17778173E-02 -1.011E-03 -4.922E-03 -1.720E-03 -8.288E-03
:PTO008:     -1   -1    0 -1.55785606E-02 2.17778173E-02 -1.011E-03  4.922E-03 -1.720E-03  8.288E-03
:PTO009:     -1    0   -2  3.47989691E-02 6.02735848E-02  8.662E-03  1.500E-02  1.434E-02  2.484E-02
:PTO010:     -1    0    2 -2.92521021E-04 5.06660314E-04  3.315E-03 -5.742E-03  4.915E-03 -8.513E-03
:PTO011:     -2    1   -1 -4.28026001E-02-2.22235523E-02 -1.010E-02 -9.007E-03 -1.735E-02 -1.388E-02
:PTO012:     -1   -1   -1  4.06474603E-02 2.59563635E-02  1.285E-02  4.247E-03  2.069E-02  8.088E-03

:ENE  : ********** TOTAL ENERGY IN Ry =        -2644.94508855

       TOTAL FORCE IN mRy/a.u. = |F|     Fx             Fy             Fz     with/without FOR in case.in2
:FOR001:   1.ATOM          2.444          0.000          0.000         -2.444 partial forces
:FOR002:   2.ATOM        805.219       -621.909       -318.768       -399.992 partial forces
       TOTAL FORCE WITH RESPECT TO GLOBAL CARTESIAN COORDINATES:
:FCA001:   1.ATOM                        -2.117         -1.222          0.000 partial forces
:FCA002:   2.ATOM                      -621.909       -318.768       -399.992 partial forces
       TOTAL FORCE WITH RESPECT TO THE GLOBAL COORDINATE SYSTEM:
:FGL001:   1.ATOM                -2.444013972    -2.444013972     0.000000000 partial forces
:FGL002:   2.ATOM              -718.119205495  -677.827377359  -399.992291341 partial forces
 Flat Integration
 New Mode for Coulomb Integral
 Consistent 3/8+Simpson combinations
 Extension of core to zero
 LDM version in phi
 Fifth-order quadrature in outwin


            ---------
:ITE002:  2. ITERATION
            ---------

:NATO :    2 INDEPENDENT AND    9 TOTAL ATOMS IN UNITCELL
       SUBSTANCE: SiO2 for tests                                              

       LATTICE                      = H   
:POT  : POTENTIAL OPTION EX_PBE EC_PBE VX_PBE VC_PBE
:LAT  : LATTICE CONSTANTS=  9.26193  9.26193 10.21737
:VOL  : UNIT CELL VOLUME =     759.05354
       MODE OF CALCULATION IS       = RELA
       NON-SPINPOLARIZED CALCULATION
:IFFT  : FFT-parameters:   72   72   80 Factor: 2.00


   CONVERGENCE PARAMETER FOR PSEUDOCHARGE: NCON=  9
   MAXIMAL VALUE OF RMT(JATOM)*ABSK(NKK) : RK  =19.43469


:VKCOUL :  VK-COUL convergence: 0.349E-05
       ATOMNUMBER=  1 Si         VCOUL-ZERO = -0.14345E+01
:EFG001:                        EFG         =    -0.00754   *10**21  V / m**2
                               V20  TOT/SRF=     0.00330    -0.01556
                               V22  TOT/SRF=     0.00175     0.00286
                               V22M TOT/SRF=    -0.00536    -0.01952
                               V21  TOT/SRF=     0.00000     0.00000
                               V21M TOT/SRF=     0.00000     0.00000

             -0.00016   -0.00536    0.00000        0.00373    0.00000    0.00000
             -0.00536   -0.00365    0.00000        0.00000   -0.00754    0.00000
              0.00000    0.00000    0.00381        0.00000    0.00000    0.00381

         MAIN DIRECTIONS OF THE EFG   1.0000  0.7260  0.0000
                                     -0.7260  1.0000  0.0000
                                      0.0000  0.0000  1.0000
:ANG001:  ANGLE WITH OLD X-AXIS =        36.0

:ETA001:                         ASYMM. ETA =     0.01018


       ATOMNUMBER=  2 O          VCOUL-ZERO = -0.67620E-01
:EFG002:                        EFG         =     2.60460   *10**21  V / m**2
                               V20  TOT/SRF=     0.02198     0.02280
                               V22  TOT/SRF=     0.51977     0.58293
                               V22M TOT/SRF=    -1.14425    -1.28935
                               V21  TOT/SRF=    -1.41362    -1.58829
                               V21M TOT/SRF=     1.25051     1.39987

              0.50708   -1.14425   -1.41362        2.60460    0.00000    0.00000
             -1.14425   -0.53246    1.25051        0.00000   -1.06971    0.00000
             -1.41362    1.25051    0.02538        0.00000    0.00000   -1.53489

         MAIN DIRECTIONS OF THE EFG   1.0000  1.0000  0.0148
                                     -0.7230  0.5277  1.0000
                                     -0.8986  0.6883 -0.7881
:ANG002:  ANGLE WITH OLD X-AXIS =        45.0

:ETA002:                         ASYMM. ETA =     0.17860


     HELLMANN-FEYNMAN-FORCE IN mRy/a.u. = |F|  Fx       Fy             Fz
:FHF001:   1.ATOM      2.491749385204      0.000000000000      0.000000000000     -2.491749385204

     HELLMANN-FEYNMAN-FORCE IN mRy/a.u. = |F|  Fx       Fy             Fz
:FHF002:   2.ATOM   1066.196468812070   -822.867655323763   -424.120307468660   -528.947725887908

:FIT001: LUSE= 13 SIGMA OF V-XC FIT FOR ATOM  1  0.7524965E-02
:FIT001: LUSE= 13 SIGMA OF V-XC FIT FOR ATOM  1  0.7524965E-02
:FIT002: LUSE= 13 SIGMA OF V-XC FIT FOR ATOM  2  0.1302212E-02
:FIT002: LUSE= 13 SIGMA OF V-XC FIT FOR ATOM  2  0.1302212E-02
:DEN  : DENSITY INTEGRAL  =         -1215.13479519   (Ry)
       ELS_POTENTIAL_AT Z=0 and Z=0.5:   0.04459  -0.08848
       ELS_POTENTIAL_AT Y=0 and Y=0.5:   0.00000   0.00000
:VZERO:v0,v0c,v0x  -0.69404   0.04459  -0.73863 v5,v5c,v5x  -0.76526  -0.08848  -0.67678
:VZERY:v0,v0c,v0x  -0.70670   0.00000  -0.70670 v5,v5c,v5x  -0.70670   0.00000  -0.70670
:VZERX:v0,v0c,v0x  -0.13512   0.26832  -0.40344 v5,v5c,v5x  -2.54919  -1.63690  -0.91229
:LMAX-WF:   10   Non-Spherical LMAX:   4

          ATOMIC SPHERE DEPENDENT PARAMETERS FOR ATOM  Si        
:e__0001: OVERALL ENERGY PARAMETER IS    0.1000
          OVERALL BASIS SET ON ATOM IS LAPW
:E0_0001: E( 0)=    0.1000
             APW+lo
:E1_0001: E( 1)=    0.1000
             APW+lo

          ATOMIC SPHERE DEPENDENT PARAMETERS FOR ATOM  O         
:e__0002: OVERALL ENERGY PARAMETER IS    0.1000
          OVERALL BASIS SET ON ATOM IS LAPW
:E0_0002: E( 0)=    0.5000
             APW+lo
:E0_0002: E( 0)=   -1.2840   E(BOTTOM)=   -2.572   E(TOP)=    0.004  1  2   233
             LOCAL ORBITAL
:E1_0002: E( 1)=    0.1000
             APW+lo

       K=   0.00000   0.00000   0.00000            1
:RKM  : MATRIX SIZE  1625LOs:  42  RKM= 6.97  WEIGHT= 1.00  PGR:    
       EIGENVALUES ARE:
:EIG00001:      -1.5114722   -1.4171246   -1.4171246   -1.3783401   -1.3770513
:EIG00006:      -1.3770513   -0.6547225   -0.6547225   -0.4744251   -0.4701972
:EIG00011:      -0.4580395   -0.4580395   -0.2848586   -0.2848586   -0.2728056
:EIG00016:      -0.2559547   -0.2070169   -0.2070169   -0.2046288   -0.1720157
:EIG00021:      -0.1720157   -0.1537973   -0.1295865   -0.1295865    0.4601049
:EIG00026:       0.7315623    0.7315623    0.7482337    0.7482337    0.8561525
:EIG00031:       0.8606440    0.9281263    0.9426370    0.9426370    0.9651440
:EIG00036:       0.9651440    1.0422591    1.1326028    1.1433037    1.1433037
:EIG00041:       1.1576103    1.1576103    1.2728835    1.2728835    1.3655552
:EIG00046:       1.4127578    1.4127579    1.5274842    1.5274842    1.6083260
 
:EIG00051:       1.6182023    1.6182023    1.6851205
       ********************************************************

:KPT   :      NUMBER OF K-POINTS:   143
       Insulator, EF-inconsistency corrected
:GAP (global)   :  0.574505 Ry =     7.817 eV (accurate value if proper k-mesh)
         Bandranges (emin - emax) and occupancy:
:BAN00014:  14   -0.298162   -0.269745  2.00000000
:BAN00015:  15   -0.278815   -0.257452  2.00000000
:BAN00016:  16   -0.259198   -0.230716  2.00000000
:BAN00017:  17   -0.240481   -0.207017  2.00000000
:BAN00018:  18   -0.229589   -0.202475  2.00000000
:BAN00019:  19   -0.220823   -0.173580  2.00000000
:BAN00020:  20   -0.203532   -0.172016  2.00000000
:BAN00021:  21   -0.185787   -0.162895  2.00000000
:BAN00022:  22   -0.164419   -0.130644  2.00000000
:BAN00023:  23   -0.150068   -0.122059  2.00000000
:BAN00024:  24   -0.141820   -0.114401  2.00000000
:BAN00025:  25    0.460105    0.666666  0.00000000
:BAN00026:  26    0.608204    0.731562  0.00000000
:BAN00027:  27    0.699808    0.752738  0.00000000
:BAN00028:  28    0.739293    0.804534  0.00000000
:BAN00029:  29    0.748234    0.808266  0.00000000
        Energy to separate low and high energystates:   -0.77136


:NOE  : NUMBER OF ELECTRONS          =   48.000

:FER  : F E R M I - ENERGY(TETRAH.M.)=  -0.1144005712
:GMA  : POTENTIAL AND CHARGE CUT-OFF  12.00 Ry**.5

:POS001: ATOM   -1 X,Y,Z = 0.46913 0.46913 0.50000  MULT= 3  ZZ= 14.000  Si        

       LMMAX 25
       LM=   0 0  1 0  2 0  2 2 -2 2  3 0  3 2 -3 2  4 0  4 2 -4 2  4 4 -4 4  5 0  5 2 -5 2  5 4
        -5 4  6 0  6 2 -6 2  6 4 -6 4  6 6 -6 6

:CHA001: TOTAL VALENCE CHARGE INSIDE SPHERE   1 =   0.4783    (RMT=  1.4000 )
:PCS001: PARTIAL CHARGES SPHERE =  1 S,P,D,F,PX,PY,PZ,D-Z2,D-X2Y2,D-XY,D-XZ,D-YZ 
:QTL001: 0.1666 0.2138 0.0882 0.0081 0.0719 0.0724 0.0695 0.0098 0.0137 0.0197 0.0228 0.0222
        Q-s-low E-s-low   Q-p-low E-p-low   Q-d-low E-d-low   Q-f-low E-f-low
:EPL001:  0.0437 -1.4609    0.0408 -1.3944    0.0133 -1.3944    0.0017 -1.4330
        Q-s-hi  E-s-hi    Q-p-hi  E-p-hi    Q-d-hi  E-d-hi    Q-f-hi  E-f-hi 
:EPH001:  0.1228 -0.5944    0.1730 -0.4466    0.0750 -0.3178    0.0065 -0.3020

                      QXX         QXY         QYY         QZZ       UP TO R
:VZZ001:            -0.22119     0.19310    -0.36952     0.59071       1.400

:POS002: ATOM   -2 X,Y,Z = 0.14451 0.41337 0.61807  MULT= 6  ZZ=  8.000  O         

       LMMAX 49

:CHA002: TOTAL VALENCE CHARGE INSIDE SPHERE   2 =   5.8586    (RMT=  1.6200 )
:PCS002: PARTIAL CHARGES SPHERE =  2 S,P,D,F,PX,PY,PZ,D-Z2,D-X2Y2,D-XY,D-XZ,D-YZ 
:QTL002: 1.6286 4.2139 0.0120 0.0037 1.3956 1.4147 1.4035 0.0019 0.0027 0.0021 0.0026 0.0027
        Q-s-low E-s-low   Q-p-low E-p-low   Q-d-low E-d-low   Q-f-low E-f-low
:EPL002:  1.5723 -1.4124    0.0182 -1.4218    0.0036 -1.4213    0.0003 -1.4151
        Q-s-hi  E-s-hi    Q-p-hi  E-p-hi    Q-d-hi  E-d-hi    Q-f-hi  E-f-hi 
:EPH002:  0.0562 -0.3717    4.1957 -0.3013    0.0084 -0.3862    0.0034 -0.3665

                      QXX         QXY         QYY         QZZ       UP TO R
:VZZ002:             1.21185    -2.68193    -1.33454     0.12270       1.620

:CHA  : TOTAL VALENCE CHARGE INSIDE UNIT CELL =      48.000000

:SUM  : SUM OF EIGENVALUES =         -28.275931829


        1.ATOM      Si                    4 CORE STATES
       CORE-FORCE in mRy/a.u. = |F|      Fx             Fy             Fz
:FCO001:   1.ATOM      0.445021686186      0.000000000000      0.000000000000     -0.445021686186

:1S 001: 1S                -130.531923411 Ry
:2S 001: 2S                  -9.545142880 Ry
:2PP001: 2P*                 -6.347212691 Ry
:2P 001: 2P                  -6.299828603 Ry

        2.ATOM      O                     1 CORE STATES
       CORE-FORCE in mRy/a.u. = |F|      Fx             Fy             Fz
:FCO002:   2.ATOM    280.829450200654    216.662243375799    111.739402397867    139.416492378540

:1S 002: 1S                 -37.273206353 Ry
:CINT001 Core Integral Atom   1    9.921473
:CINT002 Core Integral Atom   2    2.003877

       DENSITY AT NUCLEUS
        JATOM        VALENCE       SEMI-CORE          CORE           TOTAL
:RTO001:   1        4.956855     1886.033454        0.000000     1890.990309
:RTO002:   2       15.571695      303.953633        0.000000      319.525328
     
       CHARGES OF NEW CHARGE DENSITY
:NTO   : INTERSTITIAL CHARGE =    11.626613
:NPC   : PW Pseudocharge     =    27.039321
:NTO001: CHARGE SPHERE  1    =    10.399737
:NTO002: CHARGE SPHERE  2    =     7.862460

:NEC01: NUCLEAR AND ELECTRONIC CHARGE     90.00000    90.00059
     
       CHARGES OF OLD CHARGE DENSITY
:OTO   : INTERSTITIAL CHARGE =    15.538759
:OPC   : PW Pseudocharge     =    25.866957
:OTO001: CHARGE SPHERE  1    =    10.602514
:OTO002: CHARGE SPHERE  2    =     7.108950

:NEC02: NUCLEAR AND ELECTRONIC CHARGE     90.00000    90.00000
     
       CONVERGENCE TEST
:DTO001: DIFFERENCE IN SPHERE  1 =  0.2897084
:DTO002: DIFFERENCE IN SPHERE  2 =  0.8830626

:DIS  :  CHARGE DISTANCE       ( 0.8830626 for atom    2 spin 1)      0.6852779
 PW Mixed is         2149
 
******************************************************
* MULTISECANT MIXING VER9 RELEASE 10.4.0              *
* Standard Mode with controls                        *
* Fixed density scale                                *
* Regularization       1.000E-04                     *
* Trust Upper Limit    5.000E+00                     *
* Max Number of Memory Steps    8                    *
******************************************************
 
:PWTMP   6.1772E+02  5.7600E+02  7.5905E+02
:PLANE:  PW TOTAL      8.1598 DISTAN   1.00E+00  1.23E+01 %
:CHARG:  CLM/ATOM     80.8981 DISTAN   1.13E+00  1.40E+00 %
 
Step History
        DMIX         DMIXT        Red     Pred      Trust     Lambda    MagRel    MagAbs     Beta
  1   3.5000E-02   3.5000E-02 -1.00E+00  1.00E+00 -1.00E+01  1.00E+00  3.50E-02  3.50E-02  1.00E+00
  2   3.5000E-02   3.5000E-02 -1.00E+00  1.00E+00 -1.00E+01  1.00E+00  3.50E-02  1.19E-01  1.00E+00
:JACOBIANS    4.889E-01   2.720E-03
  
:TRUST:  Step 5.98E-02  Charge 7.50E-02 (e) CTO  2.69E-01 (e) PW  3.77E-01 (e)
:DIRM :  MEMORY  1/ 8 SCALE   1.000
:MIX  :   PRATT  REGULARIZATION:  1.00E-04 GREED: 0.05982  Expand 1.71  0.0598                
     
       CHARGES OF MIXED CHARGE DENSITY
:CTO   : INTERSTITIAL CHARGE =    15.477872
:CPC   : PW Pseudocharge     =    26.778706
:CTO001: CHARGE SPHERE  1    =    10.599355
:CTO002: CHARGE SPHERE  2    =     7.120677

:NEC03: NUCLEAR AND ELECTRONIC CHARGE     90.00000    90.00000

PW CHANGE     H    K    L             Current                    Change               Residue
:PTO001:      0    0    0  5.56700888E-02 0.00000000E+00  1.121E-03  0.000E+00 -3.612E-03  0.000E+00
:PTO002:      0    0   -1 -7.79214159E-10 0.00000000E+00  1.097E-11  0.000E+00  7.393E-10  0.000E+00
:PTO003:     -1    0    0 -3.93872835E-02 0.00000000E+00 -1.720E-04  0.000E+00  2.128E-03  0.000E+00
:PTO004:     -1    0   -1  4.46616523E-02-7.73562491E-02  5.939E-04 -1.029E-03  1.015E-04 -1.759E-04
:PTO005:     -1    0    1  2.67249002E-02 4.62888839E-02  1.440E-04  2.494E-04 -2.581E-04 -4.470E-04
:PTO006:      0    0   -2 -3.76722120E-10 0.00000000E+00 -1.283E-11  0.000E+00  2.825E-10  0.000E+00
:PTO007:     -2    1    0 -1.59922335E-02-2.37908083E-02 -4.137E-04 -2.013E-03 -6.969E-04 -3.302E-03
:PTO008:     -1   -1    0 -1.59922335E-02 2.37908083E-02 -4.137E-04  2.013E-03 -6.969E-04  3.302E-03
:PTO009:     -1    0   -2  3.83416409E-02 6.64096733E-02  3.543E-03  6.136E-03  5.559E-03  9.628E-03
:PTO010:     -1    0    2  1.06344257E-03-1.84193666E-03  1.356E-03 -2.349E-03  1.561E-03 -2.703E-03
:PTO011:     -2    1   -1 -4.69353707E-02-2.59073307E-02 -4.133E-03 -3.684E-03 -7.111E-03 -4.741E-03
:PTO012:     -1   -1   -1  4.59040912E-02 2.76935590E-02  5.257E-03  1.737E-03  7.661E-03  3.788E-03

:ENE  : ********** TOTAL ENERGY IN Ry =        -2644.83282038

       TOTAL FORCE IN mRy/a.u. = |F|     Fx             Fy             Fz     with/without FOR in case.in2
:FOR001:   1.ATOM          2.937          0.000          0.000         -2.937 partial forces
:FOR002:   2.ATOM        785.367       -606.205       -312.381       -389.531 partial forces
       TOTAL FORCE WITH RESPECT TO GLOBAL CARTESIAN COORDINATES:
:FCA001:   1.ATOM                        -2.543         -1.468          0.000 partial forces
:FCA002:   2.ATOM                      -606.205       -312.381       -389.531 partial forces
       TOTAL FORCE WITH RESPECT TO THE GLOBAL COORDINATE SYSTEM:
:FGL001:   1.ATOM                -2.936771071    -2.936771071     0.000000000 partial forces
:FGL002:   2.ATOM              -699.985715545  -662.373762843  -389.531233509 partial forces
 Flat Integration
 New Mode for Coulomb Integral
 Consistent 3/8+Simpson combinations
 Extension of core to zero
 LDM version in phi
 Fifth-order quadrature in outwin


            ---------
:ITE003:  3. ITERATION
            ---------

:NATO :    2 INDEPENDENT AND    9 TOTAL ATOMS IN UNITCELL
       SUBSTANCE: SiO2 for tests                                              

       LATTICE                      = H   
:POT  : POTENTIAL OPTION EX_PBE EC_PBE VX_PBE VC_PBE
:LAT  : LATTICE CONSTANTS=  9.26193  9.26193 10.21737
:VOL  : UNIT CELL VOLUME =     759.05354
       MODE OF CALCULATION IS       = RELA
       NON-SPINPOLARIZED CALCULATION
:IFFT  : FFT-parameters:   72   72   80 Factor: 2.00


   CONVERGENCE PARAMETER FOR PSEUDOCHARGE: NCON=  9
   MAXIMAL VALUE OF RMT(JATOM)*ABSK(NKK) : RK  =19.43469


:VKCOUL :  VK-COUL convergence: 0.340E-05
       ATOMNUMBER=  1 Si         VCOUL-ZERO = -0.14337E+01
:EFG001:                        EFG         =     0.01182   *10**21  V / m**2
                               V20  TOT/SRF=     0.01024    -0.01548
                               V22  TOT/SRF=     0.00235     0.00248
                               V22M TOT/SRF=    -0.00251    -0.01920
                               V21  TOT/SRF=     0.00000     0.00000
                               V21M TOT/SRF=     0.00000     0.00000

             -0.00356   -0.00251    0.00000       -0.00247    0.00000    0.00000
             -0.00251   -0.00826    0.00000        0.00000   -0.00935    0.00000
              0.00000    0.00000    0.01182        0.00000    0.00000    0.01182

         MAIN DIRECTIONS OF THE EFG   1.0000  0.4333  0.0000
                                     -0.4333  1.0000  0.0000
                                      0.0000  0.0000  1.0000
:ANG001:  ANGLE WITH OLD X-AXIS =        23.4

:ETA001:                         ASYMM. ETA =     0.58147


       ATOMNUMBER=  2 O          VCOUL-ZERO = -0.62391E-01
:EFG002:                        EFG         =     2.71294   *10**21  V / m**2
                               V20  TOT/SRF=     0.02371     0.02291
                               V22  TOT/SRF=     0.54172     0.58348
                               V22M TOT/SRF=    -1.19061    -1.29016
                               V21  TOT/SRF=    -1.47217    -1.58919
                               V21M TOT/SRF=     1.30409     1.40056

              0.52803   -1.19061   -1.47217        2.71294    0.00000    0.00000
             -1.19061   -0.55541    1.30409        0.00000   -1.11258    0.00000
             -1.47217    1.30409    0.02738        0.00000    0.00000   -1.60036

         MAIN DIRECTIONS OF THE EFG   1.0000  1.0000  0.0140
                                     -0.7231  0.5280  1.0000
                                     -0.8993  0.6874 -0.7885
:ANG002:  ANGLE WITH OLD X-AXIS =        45.0

:ETA002:                         ASYMM. ETA =     0.17980


     HELLMANN-FEYNMAN-FORCE IN mRy/a.u. = |F|  Fx       Fy             Fz
:FHF001:   1.ATOM      3.234257491913      0.000000000000      0.000000000000     -3.234257491913

     HELLMANN-FEYNMAN-FORCE IN mRy/a.u. = |F|  Fx       Fy             Fz
:FHF002:   2.ATOM   1059.952363312359   -817.800501570185   -422.479783746234   -525.558925762605

:FIT001: LUSE= 13 SIGMA OF V-XC FIT FOR ATOM  1  0.7706233E-02
:FIT001: LUSE= 13 SIGMA OF V-XC FIT FOR ATOM  1  0.7706233E-02
:FIT002: LUSE= 13 SIGMA OF V-XC FIT FOR ATOM  2  0.1286006E-02
:FIT002: LUSE= 13 SIGMA OF V-XC FIT FOR ATOM  2  0.1286006E-02
:DEN  : DENSITY INTEGRAL  =         -1215.73756813   (Ry)
       ELS_POTENTIAL_AT Z=0 and Z=0.5:   0.04269  -0.08431
       ELS_POTENTIAL_AT Y=0 and Y=0.5:   0.00000   0.00000
:VZERO:v0,v0c,v0x  -0.69854   0.04269  -0.74123 v5,v5c,v5x  -0.75044  -0.08431  -0.66612
:VZERY:v0,v0c,v0x  -0.70528   0.00000  -0.70528 v5,v5c,v5x  -0.70528   0.00000  -0.70528
:VZERX:v0,v0c,v0x  -0.10153   0.27944  -0.38097 v5,v5c,v5x  -2.50885  -1.62704  -0.88180
:LMAX-WF:   10   Non-Spherical LMAX:   4

          ATOMIC SPHERE DEPENDENT PARAMETERS FOR ATOM  Si        
:e__0001: OVERALL ENERGY PARAMETER IS   -0.1000
          OVERALL BASIS SET ON ATOM IS LAPW
:E0_0001: E( 0)=   -0.1000
             APW+lo
:E1_0001: E( 1)=   -0.1000
             APW+lo

          ATOMIC SPHERE DEPENDENT PARAMETERS FOR ATOM  O         
:e__0002: OVERALL ENERGY PARAMETER IS   -0.1000
          OVERALL BASIS SET ON ATOM IS LAPW
:E0_0002: E( 0)=   -0.1000
             APW+lo
:E0_0002: E( 0)=   -1.2724   E(BOTTOM)=   -2.562   E(TOP)=    0.017  1  2   232
             LOCAL ORBITAL
:E1_0002: E( 1)=   -0.1000
             APW+lo

       K=   0.00000   0.00000   0.00000            1
:RKM  : MATRIX SIZE  1625LOs:  42  RKM= 6.97  WEIGHT= 1.00  PGR:    
       EIGENVALUES ARE:
:EIG00001:      -1.5024513   -1.4073518   -1.4073518   -1.3681888   -1.3668578
:EIG00006:      -1.3668578   -0.6471725   -0.6471725   -0.4654133   -0.4614515
:EIG00011:      -0.4491642   -0.4491642   -0.2760306   -0.2760306   -0.2637057
:EIG00016:      -0.2468109   -0.1970907   -0.1970907   -0.1947602   -0.1619333
:EIG00021:      -0.1619333   -0.1435687   -0.1191622   -0.1191622    0.4645012
:EIG00026:       0.7348322    0.7348322    0.7521405    0.7521405    0.8616243
:EIG00031:       0.8636097    0.9323857    0.9479908    0.9479908    0.9711300
:EIG00036:       0.9711300    1.0475452    1.1372342    1.1471413    1.1471413
:EIG00041:       1.1610475    1.1610475    1.2766646    1.2766646    1.3693323
:EIG00046:       1.4170481    1.4170481    1.5309511    1.5309511
 
       ********************************************************

:KPT   :      NUMBER OF K-POINTS:   143
       Insulator, EF-inconsistency corrected
:GAP (global)   :  0.568198 Ry =     7.731 eV (accurate value if proper k-mesh)
         Bandranges (emin - emax) and occupancy:
:BAN00014:  14   -0.289568   -0.260648  2.00000000
:BAN00015:  15   -0.269878   -0.248245  2.00000000
:BAN00016:  16   -0.250001   -0.221081  2.00000000
:BAN00017:  17   -0.231058   -0.197091  2.00000000
:BAN00018:  18   -0.219942   -0.192672  2.00000000
:BAN00019:  19   -0.211211   -0.163484  2.00000000
:BAN00020:  20   -0.193767   -0.161933  2.00000000
:BAN00021:  21   -0.175851   -0.152764  2.00000000
:BAN00022:  22   -0.154266   -0.120145  2.00000000
:BAN00023:  23   -0.139790   -0.111484  2.00000000
:BAN00024:  24   -0.131494   -0.103697  2.00000000
:BAN00025:  25    0.464501    0.671327  0.00000000
:BAN00026:  26    0.613434    0.734832  0.00000000
:BAN00027:  27    0.704844    0.756704  0.00000000
:BAN00028:  28    0.742410    0.808670  0.00000000
:BAN00029:  29    0.752141    0.812368  0.00000000
        Energy to separate low and high energystates:   -0.76439


:NOE  : NUMBER OF ELECTRONS          =   48.000

:FER  : F E R M I - ENERGY(TETRAH.M.)=  -0.1036965277
:GMA  : POTENTIAL AND CHARGE CUT-OFF  12.00 Ry**.5

:POS001: ATOM   -1 X,Y,Z = 0.46913 0.46913 0.50000  MULT= 3  ZZ= 14.000  Si        

       LMMAX 25
       LM=   0 0  1 0  2 0  2 2 -2 2  3 0  3 2 -3 2  4 0  4 2 -4 2  4 4 -4 4  5 0  5 2 -5 2  5 4
        -5 4  6 0  6 2 -6 2  6 4 -6 4  6 6 -6 6

:CHA001: TOTAL VALENCE CHARGE INSIDE SPHERE   1 =   0.4827    (RMT=  1.4000 )
:PCS001: PARTIAL CHARGES SPHERE =  1 S,P,D,F,PX,PY,PZ,D-Z2,D-X2Y2,D-XY,D-XZ,D-YZ 
:QTL001: 0.1681 0.2160 0.0889 0.0081 0.0726 0.0732 0.0702 0.0100 0.0138 0.0198 0.0230 0.0223
        Q-s-low E-s-low   Q-p-low E-p-low   Q-d-low E-d-low   Q-f-low E-f-low
:EPL001:  0.0443 -1.4515    0.0412 -1.3844    0.0133 -1.3843    0.0017 -1.4234
        Q-s-hi  E-s-hi    Q-p-hi  E-p-hi    Q-d-hi  E-d-hi    Q-f-hi  E-f-hi 
:EPH001:  0.1238 -0.5863    0.1748 -0.4376    0.0756 -0.3075    0.0065 -0.2913

                      QXX         QXY         QYY         QZZ       UP TO R
:VZZ001:            -0.22319     0.19459    -0.37623     0.59942       1.400

:POS002: ATOM   -2 X,Y,Z = 0.14451 0.41337 0.61807  MULT= 6  ZZ=  8.000  O         

       LMMAX 49

:CHA002: TOTAL VALENCE CHARGE INSIDE SPHERE   2 =   5.8431    (RMT=  1.6200 )
:PCS002: PARTIAL CHARGES SPHERE =  2 S,P,D,F,PX,PY,PZ,D-Z2,D-X2Y2,D-XY,D-XZ,D-YZ 
:QTL002: 1.6269 4.1999 0.0121 0.0038 1.3911 1.4100 1.3989 0.0019 0.0027 0.0021 0.0026 0.0027
        Q-s-low E-s-low   Q-p-low E-p-low   Q-d-low E-d-low   Q-f-low E-f-low
:EPL002:  1.5698 -1.4025    0.0183 -1.4120    0.0036 -1.4116    0.0003 -1.4053
        Q-s-hi  E-s-hi    Q-p-hi  E-p-hi    Q-d-hi  E-d-hi    Q-f-hi  E-f-hi 
:EPH002:  0.0571 -0.3633    4.1816 -0.2918    0.0085 -0.3767    0.0034 -0.3572

                      QXX         QXY         QYY         QZZ       UP TO R
:VZZ002:             1.17538    -2.59564    -1.29656     0.12118       1.620

:CHA  : TOTAL VALENCE CHARGE INSIDE UNIT CELL =      48.000000

:SUM  : SUM OF EIGENVALUES =         -27.823268878


        1.ATOM      Si                    4 CORE STATES
       CORE-FORCE in mRy/a.u. = |F|      Fx             Fy             Fz
:FCO001:   1.ATOM      0.097948152521      0.000000000000      0.000000000000      0.097948152521

:1S 001: 1S                -130.534805480 Ry
:2S 001: 2S                  -9.546428777 Ry
:2PP001: 2P*                 -6.348593380 Ry
:2P 001: 2P                  -6.301201991 Ry

        2.ATOM      O                     1 CORE STATES
       CORE-FORCE in mRy/a.u. = |F|      Fx             Fy             Fz
:FCO002:   2.ATOM    282.620305980137    217.953691140807    112.676830693178    140.265311803543

:1S 002: 1S                 -37.252741355 Ry
:CINT001 Core Integral Atom   1    9.921562
:CINT002 Core Integral Atom   2    2.003872

       DENSITY AT NUCLEUS
        JATOM        VALENCE       SEMI-CORE          CORE           TOTAL
:RTO001:   1        5.021789     1886.050659        0.000000     1891.072448
:RTO002:   2       15.530062      303.946158        0.000000      319.476220
     
       CHARGES OF NEW CHARGE DENSITY
:NTO   : INTERSTITIAL CHARGE =    11.706134
:NPC   : PW Pseudocharge     =    27.040052
:NTO001: CHARGE SPHERE  1    =    10.404223
:NTO002: CHARGE SPHERE  2    =     7.846964

:NEC01: NUCLEAR AND ELECTRONIC CHARGE     90.00000    90.00059
     
       CHARGES OF OLD CHARGE DENSITY
:OTO   : INTERSTITIAL CHARGE =    15.477872
:OPC   : PW Pseudocharge     =    26.778706
:OTO001: CHARGE SPHERE  1    =    10.599355
:OTO002: CHARGE SPHERE  2    =     7.120677

:NEC02: NUCLEAR AND ELECTRONIC CHARGE     90.00000    90.00000
     
       CONVERGENCE TEST
:DTO001: DIFFERENCE IN SPHERE  1 =  0.2774047
:DTO002: DIFFERENCE IN SPHERE  2 =  0.8549286

:DIS  :  CHARGE DISTANCE       ( 0.8549286 for atom    2 spin 1)      0.6624206
 PW Mixed is         2149
 
******************************************************
* MULTISECANT MIXING VER9 RELEASE 10.4.0              *
* Standard Mode with controls                        *
* Fixed density scale                                *
* Regularization       1.000E-04                     *
* Trust Upper Limit    5.000E+00                     *
* Max Number of Memory Steps    8                    *
******************************************************
 
:PWTMP   6.1772E+02  5.7600E+02  7.5905E+02
:PLANE:  PW TOTAL      8.6397 DISTAN   9.15E-01  1.06E+01 %
:CHARG:  CLM/ATOM     80.8974 DISTAN   1.10E+00  1.35E+00 %
 
Step History
        DMIX         DMIXT        Red     Pred      Trust     Lambda    MagRel    MagAbs     Beta
  1   3.5000E-02   3.5000E-02 -1.00E+00  1.00E+00 -1.00E+01  1.00E+00  3.50E-02  3.50E-02  1.00E+00
  2   3.5000E-02   3.5000E-02  7.27E-01  1.00E+00 -1.00E+01  1.00E+00  3.50E-02  1.19E-01  1.00E+00
  3   5.9817E-02   5.9817E-02 -1.00E+00  1.00E+00 -1.00E+01  1.00E+00  5.98E-02  1.48E-01  1.00E+00
:JACOBIANS    7.325E-01   4.107E-03
  
:NORMS:  1/Froebius, Min, Max, Used   0.9838E+00  0.4904E+00  0.9838E+00  0.9838E+00
:INFO :  Number of Memory Steps    2 Skipping    0
:INFO :  SLambda=    0.0777990397  Max    0.0777990397
:PREDicted Charge, CTotal, PW Trust    1.230E-02   6.384E-02   6.770E-01
:PREDicted DMix, Beta, BLim   6.2184E-02  9.6241E-01  1.8707E+00

Eigenvalues, unscaled except for SY+YY
   #     SY Real        SY Imag          SS             YY         SY+YY Real      SY+YY Imag
   1   1.963097E+00   0.000000E+00   1.935761E+00   1.999947E+00   2.152674E+00   0.000000E+00
   2  -5.652455E-15   0.000000E+00  -1.069847E-16   5.339771E-05   5.339501E-05   0.000000E+00
 
:INFO :  Singular value  2.153E+00 Weight  1.000E+00 Projection  1.318E-02
:INFO :  Singular value  5.340E-05 Weight  6.654E-02 Projection -7.440E+00
:RANK :  ACTIVE   1.07/2  =  53.33 % ; YY RANK   1.07/2  =  53.33 %
 
:DLIM :  Beta Active  9.718E-01
:BLIM :  VZERO Control Off
:TRUST:  Step 3.33E-01  Charge 7.50E-02 (e) CTO  2.69E-01 (e) PW  4.14E-01 (e)
:DIRM :  MEMORY  2/8  SCALE   1.000 RED  0.96 PRED  1.00 NEXT  0.99 BETA  0.97
:TRAVE:  Charge 3.98E-02 (e) CTO  2.06E-01 (e) PW  1.52E-01 (e)
:DIRP :  |MSR1|= 5.250E-02 |PRATT|= 9.152E-01 ANGLE=   7.1 DEGREES
:DIRQ :  |MSR1|= 1.187E-01 |PRATT|= 2.191E+00 ANGLE=   1.3 DEGREES
:DIRT :  |MSR1|= 1.298E-01 |PRATT|= 2.375E+00 ANGLE=   3.3 DEGREES
:MIX  :   MSD1   REGULARIZATION:  2.00E-04 GREED: 0.05480  Newton 1.00  0.0546                
     
       CHARGES OF MIXED CHARGE DENSITY
:CTO   : INTERSTITIAL CHARGE =    15.271444
:CPC   : PW Pseudocharge     =    26.785228
:CTO001: CHARGE SPHERE  1    =    10.588603
:CTO002: CHARGE SPHERE  2    =     7.160458

:NEC03: NUCLEAR AND ELECTRONIC CHARGE     90.00000    90.00000

PW CHANGE     H    K    L             Current                    Change               Residue
:PTO001:      0    0    0  5.54067276E-02 0.00000000E+00 -2.634E-04  0.000E+00 -4.627E-03  0.000E+00
:PTO002:      0    0   -1 -7.39415602E-10 0.00000000E+00  3.980E-11  0.000E+00  7.284E-10  0.000E+00
:PTO003:     -1    0    0 -3.92648301E-02 0.00000000E+00  1.225E-04  0.000E+00  2.211E-03  0.000E+00
:PTO004:     -1    0   -1  4.46329757E-02-7.73065797E-02 -2.868E-05  4.967E-05 -4.431E-04  7.675E-04
:PTO005:     -1    0    1  2.67042885E-02 4.62531834E-02 -2.061E-05 -3.570E-05 -3.624E-04 -6.277E-04
:PTO006:      0    0   -2 -3.60400459E-10 0.00000000E+00  1.632E-11  0.000E+00  2.954E-10  0.000E+00
:PTO007:     -2    1    0 -1.60042012E-02-2.38410152E-02 -1.197E-05 -5.021E-05 -2.739E-04 -1.252E-03
:PTO008:     -1   -1    0 -1.60042012E-02 2.38410152E-02 -1.197E-05  5.021E-05 -2.739E-04  1.252E-03
:PTO009:     -1    0   -2  3.84157010E-02 6.65379492E-02  7.406E-05  1.283E-04  1.949E-03  3.377E-03
:PTO010:     -1    0    2  1.06008511E-03-1.83612135E-03 -3.357E-06  5.815E-06  1.860E-04 -3.222E-04
:PTO011:     -2    1   -1 -4.70561462E-02-2.59266248E-02 -1.208E-04 -1.929E-05 -2.904E-03 -9.903E-04
:PTO012:     -1   -1   -1  4.59811882E-02 2.77885066E-02  7.710E-05  9.495E-05  2.310E-03  2.020E-03

:ENE  : ********** TOTAL ENERGY IN Ry =        -2644.78712298

       TOTAL FORCE IN mRy/a.u. = |F|     Fx             Fy             Fz     with/without FOR in case.in2
:FOR001:   1.ATOM          3.136          0.000          0.000         -3.136 partial forces
:FOR002:   2.ATOM        777.332       -599.847       -309.803       -385.294 partial forces
       TOTAL FORCE WITH RESPECT TO GLOBAL CARTESIAN COORDINATES:
:FCA001:   1.ATOM                        -2.716         -1.568          0.000 partial forces
:FCA002:   2.ATOM                      -599.847       -309.803       -385.294 partial forces
       TOTAL FORCE WITH RESPECT TO THE GLOBAL COORDINATE SYSTEM:
:FGL001:   1.ATOM                -3.136309339    -3.136309339     0.000000000 partial forces
:FGL002:   2.ATOM              -692.643434948  -656.124670527  -385.293613959 partial forces
 Flat Integration
 New Mode for Coulomb Integral
 Consistent 3/8+Simpson combinations
 Extension of core to zero
 LDM version in phi
 Fifth-order quadrature in outwin


            ---------
:ITE004:  4. ITERATION
            ---------

:NATO :    2 INDEPENDENT AND    9 TOTAL ATOMS IN UNITCELL
       SUBSTANCE: SiO2 for tests                                              

       LATTICE                      = H   
:POT  : POTENTIAL OPTION EX_PBE EC_PBE VX_PBE VC_PBE
:LAT  : LATTICE CONSTANTS=  9.26193  9.26193 10.21737
:VOL  : UNIT CELL VOLUME =     759.05354
       MODE OF CALCULATION IS       = RELA
       NON-SPINPOLARIZED CALCULATION
:IFFT  : FFT-parameters:   72   72   80 Factor: 2.00


   CONVERGENCE PARAMETER FOR PSEUDOCHARGE: NCON=  9
   MAXIMAL VALUE OF RMT(JATOM)*ABSK(NKK) : RK  =19.43469


:VKCOUL :  VK-COUL convergence: 0.341E-05
       ATOMNUMBER=  1 Si         VCOUL-ZERO = -0.14387E+01
:EFG001:                        EFG         =     0.04315   *10**21  V / m**2
                               V20  TOT/SRF=     0.03737    -0.01477
                               V22  TOT/SRF=     0.00572     0.00131
                               V22M TOT/SRF=     0.00760    -0.01807
                               V21  TOT/SRF=     0.00000     0.00000
                               V21M TOT/SRF=     0.00000     0.00000

             -0.01585    0.00760    0.00000       -0.01206    0.00000    0.00000
              0.00760   -0.02729    0.00000        0.00000   -0.03109    0.00000
              0.00000    0.00000    0.04315        0.00000    0.00000    0.04315

         MAIN DIRECTIONS OF THE EFG   1.0000 -0.4990  0.0000
                                      0.4990  1.0000  0.0000
                                      0.0000  0.0000  1.0000
:ANG001:  ANGLE WITH OLD X-AXIS =        26.5

:ETA001:                         ASYMM. ETA =     0.44101


       ATOMNUMBER=  2 O          VCOUL-ZERO = -0.52748E-01
:EFG002:                        EFG         =     3.10745   *10**21  V / m**2
                               V20  TOT/SRF=     0.03022     0.02326
                               V22  TOT/SRF=     0.62166     0.58492
                               V22M TOT/SRF=    -1.35909    -1.29205
                               V21  TOT/SRF=    -1.68541    -1.59124
                               V21M TOT/SRF=     1.49950     1.40198

              0.60421   -1.35909   -1.68541        3.10745    0.00000    0.00000
             -1.35909   -0.63911    1.49950        0.00000   -1.26836    0.00000
             -1.68541    1.49950    0.03490        0.00000    0.00000   -1.83908

         MAIN DIRECTIONS OF THE EFG   1.0000  1.0000  0.0113
                                     -0.7236  0.5293  1.0000
                                     -0.9017  0.6843 -0.7900
:ANG002:  ANGLE WITH OLD X-AXIS =        45.0

:ETA002:                         ASYMM. ETA =     0.18366


     HELLMANN-FEYNMAN-FORCE IN mRy/a.u. = |F|  Fx       Fy             Fz
:FHF001:   1.ATOM      5.251637637221      0.000000000000      0.000000000000     -5.251637637221

     HELLMANN-FEYNMAN-FORCE IN mRy/a.u. = |F|  Fx       Fy             Fz
:FHF002:   2.ATOM   1033.994492191595   -797.029512175692   -414.671203149196   -511.797186278247

:FIT001: LUSE= 13 SIGMA OF V-XC FIT FOR ATOM  1  0.8343366E-02
:FIT001: LUSE= 13 SIGMA OF V-XC FIT FOR ATOM  1  0.8343366E-02
:FIT002: LUSE= 13 SIGMA OF V-XC FIT FOR ATOM  2  0.1224328E-02
:FIT002: LUSE= 13 SIGMA OF V-XC FIT FOR ATOM  2  0.1224328E-02
:DEN  : DENSITY INTEGRAL  =         -1217.04424151   (Ry)
       ELS_POTENTIAL_AT Z=0 and Z=0.5:   0.04477  -0.08677
       ELS_POTENTIAL_AT Y=0 and Y=0.5:   0.00000   0.00000
:VZERO:v0,v0c,v0x  -0.69278   0.04477  -0.73755 v5,v5c,v5x  -0.75016  -0.08677  -0.66338
:VZERY:v0,v0c,v0x  -0.70190   0.00000  -0.70190 v5,v5c,v5x  -0.70190   0.00000  -0.70190
:VZERX:v0,v0c,v0x  -0.10639   0.27250  -0.37889 v5,v5c,v5x  -2.51092  -1.63081  -0.88011
:LMAX-WF:   10   Non-Spherical LMAX:   4

          ATOMIC SPHERE DEPENDENT PARAMETERS FOR ATOM  Si        
:e__0001: OVERALL ENERGY PARAMETER IS   -0.3000
          OVERALL BASIS SET ON ATOM IS LAPW
:E0_0001: E( 0)=   -0.3000
             APW+lo
:E1_0001: E( 1)=   -0.3000
             APW+lo

          ATOMIC SPHERE DEPENDENT PARAMETERS FOR ATOM  O         
:e__0002: OVERALL ENERGY PARAMETER IS   -0.3000
          OVERALL BASIS SET ON ATOM IS LAPW
:E0_0002: E( 0)=    0.1000
             APW+lo
:E0_0002: E( 0)=   -1.2412   E(BOTTOM)=   -2.537   E(TOP)=    0.054  1  2   228
             LOCAL ORBITAL
:E1_0002: E( 1)=   -0.3000
             APW+lo

       K=   0.00000   0.00000   0.00000            1
:RKM  : MATRIX SIZE  1625LOs:  42  RKM= 6.97  WEIGHT= 1.00  PGR:    
       EIGENVALUES ARE:
:EIG00001:      -1.4806120   -1.3830704   -1.3830704   -1.3427164   -1.3412389
:EIG00006:      -1.3412389   -0.6297412   -0.6297412   -0.4437874   -0.4406213
:EIG00011:      -0.4279277   -0.4279277   -0.2548403   -0.2548403   -0.2416081
:EIG00016:      -0.2245747   -0.1723072   -0.1723072   -0.1701069   -0.1366858
:EIG00021:      -0.1366858   -0.1177637   -0.0927806   -0.0927806    0.4719457
:EIG00026:       0.7383991    0.7383991    0.7580884    0.7580884    0.8667341
:EIG00031:       0.8721172    0.9392409    0.9577578    0.9577578    0.9838109
:EIG00036:       0.9838109    1.0574033    1.1440633    1.1520573    1.1520573
:EIG00041:       1.1646289    1.1646289    1.2812612    1.2812612    1.3737726
       ********************************************************

:KPT   :      NUMBER OF K-POINTS:   143
:GAP (global)   :  0.548333 Ry =     7.460 eV (accurate value if proper k-mesh)
         Bandranges (emin - emax) and occupancy:
:BAN00014:  14   -0.269120   -0.238534  2.00000000
:BAN00015:  15   -0.248342   -0.225441  2.00000000
:BAN00016:  16   -0.227642   -0.197271  2.00000000
:BAN00017:  17   -0.207903   -0.172307  2.00000000
:BAN00018:  18   -0.196086   -0.168279  2.00000000
:BAN00019:  19   -0.187397   -0.138161  2.00000000
:BAN00020:  20   -0.169548   -0.136686  2.00000000
:BAN00021:  21   -0.151045   -0.127334  2.00000000
:BAN00022:  22   -0.128767   -0.093469  2.00000000
:BAN00023:  23   -0.113869   -0.084596  2.00000000
:BAN00024:  24   -0.105439   -0.076387  2.00000000
:BAN00025:  25    0.471946    0.680643  0.00000000
:BAN00026:  26    0.623595    0.742635  0.00000000
:BAN00027:  27    0.714239    0.762512  0.00000000
:BAN00028:  28    0.745531    0.813959  0.00000000
:BAN00029:  29    0.758088    0.818540  0.00000000
        Energy to separate low and high energystates:   -0.74865


:NOE  : NUMBER OF ELECTRONS          =   48.000

:FER  : F E R M I - ENERGY(TETRAH.M.)=  -0.0763266590
:GMA  : POTENTIAL AND CHARGE CUT-OFF  12.00 Ry**.5

:POS001: ATOM   -1 X,Y,Z = 0.46913 0.46913 0.50000  MULT= 3  ZZ= 14.000  Si        

       LMMAX 25
       LM=   0 0  1 0  2 0  2 2 -2 2  3 0  3 2 -3 2  4 0  4 2 -4 2  4 4 -4 4  5 0  5 2 -5 2  5 4
        -5 4  6 0  6 2 -6 2  6 4 -6 4  6 6 -6 6

:CHA001: TOTAL VALENCE CHARGE INSIDE SPHERE   1 =   0.4952    (RMT=  1.4000 )
:PCS001: PARTIAL CHARGES SPHERE =  1 S,P,D,F,PX,PY,PZ,D-Z2,D-X2Y2,D-XY,D-XZ,D-YZ 
:QTL001: 0.1724 0.2221 0.0911 0.0081 0.0747 0.0753 0.0721 0.0103 0.0142 0.0203 0.0234 0.0228
        Q-s-low E-s-low   Q-p-low E-p-low   Q-d-low E-d-low   Q-f-low E-f-low
:EPL001:  0.0458 -1.4283    0.0423 -1.3592    0.0135 -1.3592    0.0017 -1.3994
        Q-s-hi  E-s-hi    Q-p-hi  E-p-hi    Q-d-hi  E-d-hi    Q-f-hi  E-f-hi 
:EPH001:  0.1266 -0.5673    0.1798 -0.4159    0.0776 -0.2820    0.0065 -0.2642

                      QXX         QXY         QYY         QZZ       UP TO R
:VZZ001:            -0.22363     0.19459    -0.40070     0.62433       1.400

:POS002: ATOM   -2 X,Y,Z = 0.14451 0.41337 0.61807  MULT= 6  ZZ=  8.000  O         

       LMMAX 49

:CHA002: TOTAL VALENCE CHARGE INSIDE SPHERE   2 =   5.7937    (RMT=  1.6200 )
:PCS002: PARTIAL CHARGES SPHERE =  2 S,P,D,F,PX,PY,PZ,D-Z2,D-X2Y2,D-XY,D-XZ,D-YZ 
:QTL002: 1.6211 4.1558 0.0125 0.0038 1.3767 1.3950 1.3842 0.0020 0.0028 0.0022 0.0027 0.0028
        Q-s-low E-s-low   Q-p-low E-p-low   Q-d-low E-d-low   Q-f-low E-f-low
:EPL002:  1.5615 -1.3780    0.0187 -1.3879    0.0037 -1.3874    0.0003 -1.3809
        Q-s-hi  E-s-hi    Q-p-hi  E-p-hi    Q-d-hi  E-d-hi    Q-f-hi  E-f-hi 
:EPH002:  0.0596 -0.3433    4.1371 -0.2684    0.0088 -0.3527    0.0035 -0.3342

                      QXX         QXY         QYY         QZZ       UP TO R
:VZZ002:             1.10124    -2.41850    -1.21809     0.11684       1.620

:CHA  : TOTAL VALENCE CHARGE INSIDE UNIT CELL =      48.000000

:SUM  : SUM OF EIGENVALUES =         -26.711075004


        1.ATOM      Si                    4 CORE STATES
       CORE-FORCE in mRy/a.u. = |F|      Fx             Fy             Fz
:FCO001:   1.ATOM      1.548996969654      0.000000000000      0.000000000000      1.548996969654

:1S 001: 1S                -130.551862518 Ry
:2S 001: 2S                  -9.558311476 Ry
:2PP001: 2P*                 -6.360777137 Ry
:2P 001: 2P                  -6.313361670 Ry

        2.ATOM      O                     1 CORE STATES
       CORE-FORCE in mRy/a.u. = |F|      Fx             Fy             Fz
:FCO002:   2.ATOM    288.438884589043    222.159032265377    115.670685167564    143.047709239780

:1S 002: 1S                 -37.192145429 Ry
:CINT001 Core Integral Atom   1    9.921865
:CINT002 Core Integral Atom   2    2.003853

       DENSITY AT NUCLEUS
        JATOM        VALENCE       SEMI-CORE          CORE           TOTAL
:RTO001:   1        5.162201     1886.107570        0.000000     1891.269771
:RTO002:   2       15.389461      303.921998        0.000000      319.311460
     
       CHARGES OF NEW CHARGE DENSITY
:NTO   : INTERSTITIAL CHARGE =    11.964197
:NPC   : PW Pseudocharge     =    26.993068
:NTO001: CHARGE SPHERE  1    =    10.417048
:NTO002: CHARGE SPHERE  2    =     7.797541

:NEC01: NUCLEAR AND ELECTRONIC CHARGE     90.00000    90.00059
     
       CHARGES OF OLD CHARGE DENSITY
:OTO   : INTERSTITIAL CHARGE =    15.271444
:OPC   : PW Pseudocharge     =    26.785228
:OTO001: CHARGE SPHERE  1    =    10.588603
:OTO002: CHARGE SPHERE  2    =     7.160458

:NEC02: NUCLEAR AND ELECTRONIC CHARGE     90.00000    90.00000
     
       CONVERGENCE TEST
:DTO001: DIFFERENCE IN SPHERE  1 =  0.2427202
:DTO002: DIFFERENCE IN SPHERE  2 =  0.7311847

:DIS  :  CHARGE DISTANCE       ( 0.7311847 for atom    2 spin 1)      0.5683632
 PW Mixed is         2149
 
******************************************************
* MULTISECANT MIXING VER9 RELEASE 10.4.0              *
* Standard Mode with controls                        *
* Fixed density scale                                *
* Regularization       1.000E-04                     *
* Trust Upper Limit    5.000E+00                     *
* Max Number of Memory Steps    8                    *
******************************************************
 
:PWTMP   6.1772E+02  5.7600E+02  7.5905E+02
:PLANE:  PW TOTAL      8.6249 DISTAN   8.57E-01  9.94E+00 %
:CHARG:  CLM/ATOM     80.8946 DISTAN   9.42E-01  1.16E+00 %
 
Step History
        DMIX         DMIXT        Red     Pred      Trust     Lambda    MagRel    MagAbs     Beta
  1   3.5000E-02   3.5000E-02 -1.00E+00  1.00E+00 -1.00E+01  1.00E+00  3.50E-02  3.50E-02  1.00E+00
  2   3.5000E-02   3.5000E-02  7.27E-01  1.00E+00 -1.00E+01  1.00E+00  3.50E-02  1.19E-01  1.00E+00
  3   5.9817E-02   5.9817E-02  9.60E-01  1.00E+00 -1.00E+01  7.78E-02  5.98E-02  1.48E-01  1.00E+00
  4   5.4796E-02   5.4796E-02 -1.00E+00  9.93E-01  3.33E-01  1.00E+00  5.46E-02  1.30E-01  9.72E-01
:JACOBIANS    8.833E-01   1.676E-01
  
:NORMS:  1/Froebius, Min, Max, Used   0.7605E+00  0.4668E+00  0.1014E+01  0.8350E+00
:INFO :  Number of Memory Steps    3 Skipping    0
:INFO :  SLambda=    1.4338844593  Max    1.4338844593
:PREDicted Charge, CTotal, PW Trust    2.895E-01   1.502E+00   1.561E+00
:PREDicted DMix, Beta, BLim   3.7949E-01  3.8886E+00  2.2880E+00

Eigenvalues, unscaled except for SY+YY
   #     SY Real        SY Imag          SS             YY         SY+YY Real      SY+YY Imag
   1   1.737319E+00   0.000000E+00   1.578960E+00   2.264783E+00   4.669636E+00   0.000000E+00
   2  -5.330978E-15   0.000000E+00   1.559273E-01   7.351856E-01   3.277246E-05   0.000000E+00
   3   3.442557E-01   0.000000E+00   1.469720E-16   3.169135E-05   1.315069E+00   0.000000E+00
 
:INFO :  Singular value  4.679E+00 Weight  1.000E+00 Projection -3.063E-01
:INFO :  Singular value  1.313E+00 Weight  1.000E+00 Projection -2.126E+00
:INFO :  Singular value  3.277E-05 Weight  2.051E-02 Projection -1.261E+00
:RANK :  ACTIVE   2.02/3  =  67.35 % ; YY RANK   2.02/3  =  67.31 %
 
:BLIM :  VZERO Control Off
:TRUST:  Step 3.88E-01  Charge 8.25E-02 (e) CTO  2.96E-01 (e) PW  4.56E-01 (e)
:DTRUS:  Lambda    9.009E+00 Increment    7.276E-12 Iterations   128 DMIX    4.452E-02
:INFOA:  Angle SubSpace to MSR1     30.72
:DIRM :  MEMORY  3/8  SCALE   1.000 RED  0.87 PRED  0.99 NEXT  0.82 
:TRAVE:  Charge 4.84E-02 (e) CTO  2.51E-01 (e) PW  1.72E-01 (e)
:DIRP :  |MSR1|= 8.292E-02 |PRATT|= 8.570E-01 ANGLE=  10.5 DEGREES
:DIRQ :  |MSR1|= 1.605E-01 |PRATT|= 1.883E+00 ANGLE=   8.4 DEGREES
:DIRT :  |MSR1|= 1.807E-01 |PRATT|= 2.069E+00 ANGLE=   9.2 DEGREES
:MIX  :   MSE1   REGULARIZATION:  2.26E-04 GREED: 0.13699  LMStep 0.19  0.0873 CTotal         
     
       CHARGES OF MIXED CHARGE DENSITY
:CTO   : INTERSTITIAL CHARGE =    14.975437
:CPC   : PW Pseudocharge     =    26.828676
:CTO001: CHARGE SPHERE  1    =    10.573057
:CTO002: CHARGE SPHERE  2    =     7.217565

:NEC03: NUCLEAR AND ELECTRONIC CHARGE     90.00000    90.00000

PW CHANGE     H    K    L             Current                    Change               Residue
:PTO001:      0    0    0  5.50739980E-02 0.00000000E+00 -3.327E-04  0.000E+00 -4.086E-03  0.000E+00
:PTO002:      0    0   -1 -6.66997795E-10 0.00000000E+00  7.242E-11  0.000E+00  6.888E-10  0.000E+00
:PTO003:     -1    0    0 -3.91226664E-02 0.00000000E+00  1.422E-04  0.000E+00  1.858E-03  0.000E+00
:PTO004:     -1    0   -1  4.46355655E-02-7.73110654E-02  2.590E-06 -4.486E-06 -3.319E-04  5.749E-04
:PTO005:     -1    0    1  2.66988174E-02 4.62437072E-02 -5.471E-06 -9.476E-06 -2.595E-04 -4.495E-04
:PTO006:      0    0   -2 -3.31591446E-10 0.00000000E+00  2.881E-11  0.000E+00  2.792E-10  0.000E+00
:PTO007:     -2    1    0 -1.60266159E-02-2.39818585E-02 -2.241E-05 -1.408E-04 -1.983E-04 -1.028E-03
:PTO008:     -1   -1    0 -1.60266159E-02 2.39818585E-02 -2.241E-05  1.408E-04 -1.983E-04  1.028E-03
:PTO009:     -1    0   -2  3.86367703E-02 6.69208525E-02  2.211E-04  3.829E-04  1.565E-03  2.711E-03
:PTO010:     -1    0    2  1.10460220E-03-1.91322723E-03  4.452E-05 -7.711E-05  1.221E-04 -2.114E-04
:PTO011:     -2    1   -1 -4.73766319E-02-2.60653694E-02 -3.205E-04 -1.387E-04 -2.423E-03 -6.867E-04
:PTO012:     -1   -1   -1  4.62615874E-02 2.79966830E-02  2.804E-04  2.082E-04  1.806E-03  1.755E-03

:ENE  : ********** TOTAL ENERGY IN Ry =        -2644.64710849

       TOTAL FORCE IN mRy/a.u. = |F|     Fx             Fy             Fz     with/without FOR in case.in2
:FOR001:   1.ATOM          3.703          0.000          0.000         -3.703 partial forces
:FOR002:   2.ATOM        745.556       -574.870       -299.001       -368.749 partial forces
       TOTAL FORCE WITH RESPECT TO GLOBAL CARTESIAN COORDINATES:
:FCA001:   1.ATOM                        -3.207         -1.851          0.000 partial forces
:FCA002:   2.ATOM                      -574.870       -299.001       -368.749 partial forces
       TOTAL FORCE WITH RESPECT TO THE GLOBAL COORDINATE SYSTEM:
:FGL001:   1.ATOM                -3.702640668    -3.702640668     0.000000000 partial forces
:FGL002:   2.ATOM              -663.803252651  -630.902144307  -368.749477038 partial forces
 Flat Integration
 New Mode for Coulomb Integral
 Consistent 3/8+Simpson combinations
 Extension of core to zero
 LDM version in phi
 Fifth-order quadrature in outwin


            ---------
:ITE005:  5. ITERATION
            ---------

:NATO :    2 INDEPENDENT AND    9 TOTAL ATOMS IN UNITCELL
       SUBSTANCE: SiO2 for tests                                              

       LATTICE                      = H   
:POT  : POTENTIAL OPTION EX_PBE EC_PBE VX_PBE VC_PBE
:LAT  : LATTICE CONSTANTS=  9.26193  9.26193 10.21737
:VOL  : UNIT CELL VOLUME =     759.05354
       MODE OF CALCULATION IS       = RELA
       NON-SPINPOLARIZED CALCULATION
:IFFT  : FFT-parameters:   72   72   80 Factor: 2.00


   CONVERGENCE PARAMETER FOR PSEUDOCHARGE: NCON=  9
   MAXIMAL VALUE OF RMT(JATOM)*ABSK(NKK) : RK  =19.43469


:VKCOUL :  VK-COUL convergence: 0.340E-05
       ATOMNUMBER=  1 Si         VCOUL-ZERO = -0.14443E+01
:EFG001:                        EFG         =     0.10969   *10**21  V / m**2
                               V20  TOT/SRF=     0.09500    -0.01146
                               V22  TOT/SRF=     0.01624     0.00034
                               V22M TOT/SRF=     0.02596    -0.01633
                               V21  TOT/SRF=     0.00000     0.00000
                               V21M TOT/SRF=     0.00000     0.00000

             -0.03861    0.02596    0.00000       -0.02423    0.00000    0.00000
              0.02596   -0.07108    0.00000        0.00000   -0.08547    0.00000
              0.00000    0.00000    0.10969        0.00000    0.00000    0.10969

         MAIN DIRECTIONS OF THE EFG   1.0000 -0.5541  0.0000
                                      0.5541  1.0000  0.0000
                                      0.0000  0.0000  1.0000
:ANG001:  ANGLE WITH OLD X-AXIS =        29.0

:ETA001:                         ASYMM. ETA =     0.55827


       ATOMNUMBER=  2 O          VCOUL-ZERO = -0.37526E-01
:EFG002:                        EFG         =     3.67297   *10**21  V / m**2
                               V20  TOT/SRF=     0.04040     0.02375
                               V22  TOT/SRF=     0.73702     0.58583
                               V22M TOT/SRF=    -1.59765    -1.29289
                               V21  TOT/SRF=    -1.99113    -1.59179
                               V21M TOT/SRF=     1.78246     1.40194

              0.71369   -1.59765   -1.99113        3.67297    0.00000    0.00000
             -1.59765   -0.76034    1.78246        0.00000   -1.48854    0.00000
             -1.99113    1.78246    0.04665        0.00000    0.00000   -2.18444

         MAIN DIRECTIONS OF THE EFG   1.0000  1.0000  0.0061
                                     -0.7243  0.5324  1.0000
                                     -0.9051  0.6788 -0.7934
:ANG002:  ANGLE WITH OLD X-AXIS =        45.0

:ETA002:                         ASYMM. ETA =     0.18947


     HELLMANN-FEYNMAN-FORCE IN mRy/a.u. = |F|  Fx       Fy             Fz
:FHF001:   1.ATOM      5.336539987486      0.000000000000      0.000000000000     -5.336539987486

     HELLMANN-FEYNMAN-FORCE IN mRy/a.u. = |F|  Fx       Fy             Fz
:FHF002:   2.ATOM    983.251353469188   -757.336156565858   -396.487023008200   -485.822200648694

:FIT001: LUSE= 13 SIGMA OF V-XC FIT FOR ATOM  1  0.9425604E-02
:FIT001: LUSE= 13 SIGMA OF V-XC FIT FOR ATOM  1  0.9425604E-02
:FIT002: LUSE= 13 SIGMA OF V-XC FIT FOR ATOM  2  0.1096250E-02
:FIT002: LUSE= 13 SIGMA OF V-XC FIT FOR ATOM  2  0.1096250E-02
:DEN  : DENSITY INTEGRAL  =         -1218.87788140   (Ry)
       ELS_POTENTIAL_AT Z=0 and Z=0.5:   0.04748  -0.08995
       ELS_POTENTIAL_AT Y=0 and Y=0.5:   0.00000   0.00000
:VZERO:v0,v0c,v0x  -0.68415   0.04748  -0.73163 v5,v5c,v5x  -0.74842  -0.08995  -0.65847
:VZERY:v0,v0c,v0x  -0.69652   0.00000  -0.69652 v5,v5c,v5x  -0.69652   0.00000  -0.69652
:VZERX:v0,v0c,v0x  -0.11144   0.26270  -0.37413 v5,v5c,v5x  -2.51065  -1.63465  -0.87600
:LMAX-WF:   10   Non-Spherical LMAX:   4

          ATOMIC SPHERE DEPENDENT PARAMETERS FOR ATOM  Si        
:e__0001: OVERALL ENERGY PARAMETER IS   -0.2842
          OVERALL BASIS SET ON ATOM IS LAPW
:E0_0001: E( 0)=   -0.2842
             APW+lo
:E1_0001: E( 1)=   -0.2842
             APW+lo

          ATOMIC SPHERE DEPENDENT PARAMETERS FOR ATOM  O         
:e__0002: OVERALL ENERGY PARAMETER IS   -0.2842
          OVERALL BASIS SET ON ATOM IS LAPW
:E0_0002: E( 0)=    0.1158
             APW+lo
:E0_0002: E( 0)=   -1.1983   E(BOTTOM)=   -2.502   E(TOP)=    0.105  1  2   226
             LOCAL ORBITAL
:E1_0002: E( 1)=   -0.2842
             APW+lo

       K=   0.00000   0.00000   0.00000            1
:RKM  : MATRIX SIZE  1625LOs:  42  RKM= 6.97  WEIGHT= 1.00  PGR:    
       EIGENVALUES ARE:
:EIG00001:      -1.4505207   -1.3496352   -1.3496352   -1.3076277   -1.3059555
:EIG00006:      -1.3059555   -0.6057639   -0.6057639   -0.4141974   -0.4121325
:EIG00011:      -0.3988976   -0.3988976   -0.2260991   -0.2260991   -0.2116356
:EIG00016:      -0.1944596   -0.1385060   -0.1385060   -0.1364411   -0.1024558
:EIG00021:      -0.1024558   -0.0827396   -0.0569963   -0.0569963    0.4830159
:EIG00026:       0.7439579    0.7439579    0.7672093    0.7672093    0.8718701
:EIG00031:       0.8866907    0.9489727    0.9703416    0.9703416    1.0012552
:EIG00036:       1.0012552    1.0707393    1.1531608    1.1593026    1.1593026
:EIG00041:       1.1704223    1.1704224    1.2881415    1.2881415    1.3800895
       ********************************************************

:KPT   :      NUMBER OF K-POINTS:   143
       Insulator, EF-inconsistency corrected
:GAP (global)   :  0.522305 Ry =     7.106 eV (accurate value if proper k-mesh)
         Bandranges (emin - emax) and occupancy:
:BAN00014:  14   -0.241368   -0.208517  2.00000000
:BAN00015:  15   -0.219565   -0.194424  2.00000000
:BAN00016:  16   -0.197291   -0.165020  2.00000000
:BAN00017:  17   -0.176435   -0.138506  2.00000000
:BAN00018:  18   -0.163897   -0.135138  2.00000000
:BAN00019:  19   -0.154817   -0.103770  2.00000000
:BAN00020:  20   -0.136651   -0.102456  2.00000000
:BAN00021:  21   -0.117328   -0.092858  2.00000000
:BAN00022:  22   -0.094159   -0.057249  2.00000000
:BAN00023:  23   -0.078660   -0.048089  2.00000000
:BAN00024:  24   -0.070083   -0.039289  2.00000000
:BAN00025:  25    0.483016    0.694214  0.00000000
:BAN00026:  26    0.638185    0.755040  0.00000000
:BAN00027:  27    0.727628    0.769971  0.00000000
:BAN00028:  28    0.747162    0.820932  0.00000000
:BAN00029:  29    0.767209    0.827372  0.00000000
        Energy to separate low and high energystates:   -0.72698


:NOE  : NUMBER OF ELECTRONS          =   48.000

:FER  : F E R M I - ENERGY(TETRAH.M.)=  -0.0392891953
:GMA  : POTENTIAL AND CHARGE CUT-OFF  12.00 Ry**.5

:POS001: ATOM   -1 X,Y,Z = 0.46913 0.46913 0.50000  MULT= 3  ZZ= 14.000  Si        

       LMMAX 25
       LM=   0 0  1 0  2 0  2 2 -2 2  3 0  3 2 -3 2  4 0  4 2 -4 2  4 4 -4 4  5 0  5 2 -5 2  5 4
        -5 4  6 0  6 2 -6 2  6 4 -6 4  6 6 -6 6

:CHA001: TOTAL VALENCE CHARGE INSIDE SPHERE   1 =   0.5120    (RMT=  1.4000 )
:PCS001: PARTIAL CHARGES SPHERE =  1 S,P,D,F,PX,PY,PZ,D-Z2,D-X2Y2,D-XY,D-XZ,D-YZ 
:QTL001: 0.1781 0.2303 0.0940 0.0082 0.0774 0.0782 0.0747 0.0108 0.0148 0.0210 0.0241 0.0234
        Q-s-low E-s-low   Q-p-low E-p-low   Q-d-low E-d-low   Q-f-low E-f-low
:EPL001:  0.0479 -1.3963    0.0436 -1.3246    0.0136 -1.3246    0.0017 -1.3663
        Q-s-hi  E-s-hi    Q-p-hi  E-p-hi    Q-d-hi  E-d-hi    Q-f-hi  E-f-hi 
:EPH001:  0.1302 -0.5412    0.1867 -0.3862    0.0804 -0.2472    0.0065 -0.2273

                      QXX         QXY         QYY         QZZ       UP TO R
:VZZ001:            -0.22147     0.19260    -0.43815     0.65962       1.400

:POS002: ATOM   -2 X,Y,Z = 0.14451 0.41337 0.61807  MULT= 6  ZZ=  8.000  O         

       LMMAX 49

:CHA002: TOTAL VALENCE CHARGE INSIDE SPHERE   2 =   5.7264    (RMT=  1.6200 )
:PCS002: PARTIAL CHARGES SPHERE =  2 S,P,D,F,PX,PY,PZ,D-Z2,D-X2Y2,D-XY,D-XZ,D-YZ 
:QTL002: 1.6132 4.0957 0.0131 0.0040 1.3571 1.3745 1.3642 0.0021 0.0029 0.0023 0.0028 0.0029
        Q-s-low E-s-low   Q-p-low E-p-low   Q-d-low E-d-low   Q-f-low E-f-low
:EPL002:  1.5501 -1.3441    0.0191 -1.3547    0.0038 -1.3541    0.0003 -1.3472
        Q-s-hi  E-s-hi    Q-p-hi  E-p-hi    Q-d-hi  E-d-hi    Q-f-hi  E-f-hi 
:EPH002:  0.0631 -0.3162    4.0766 -0.2366    0.0093 -0.3200    0.0036 -0.3030

                      QXX         QXY         QYY         QZZ       UP TO R
:VZZ002:             1.04527    -2.28238    -1.15824     0.11297       1.620

:CHA  : TOTAL VALENCE CHARGE INSIDE UNIT CELL =      48.000000

:SUM  : SUM OF EIGENVALUES =         -25.192035140


        1.ATOM      Si                    4 CORE STATES
       CORE-FORCE in mRy/a.u. = |F|      Fx             Fy             Fz
:FCO001:   1.ATOM      1.459875938169      0.000000000000      0.000000000000      1.459875938169

:1S 001: 1S                -130.571369751 Ry
:2S 001: 2S                  -9.572610525 Ry
:2PP001: 2P*                 -6.375325699 Ry
:2P 001: 2P                  -6.327883083 Ry

        2.ATOM      O                     1 CORE STATES
       CORE-FORCE in mRy/a.u. = |F|      Fx             Fy             Fz
:FCO002:   2.ATOM    296.773490762446    228.295819162020    119.557110520034    147.178874491451

:1S 002: 1S                 -37.114412998 Ry
:CINT001 Core Integral Atom   1    9.922259
:CINT002 Core Integral Atom   2    2.003829

       DENSITY AT NUCLEUS
        JATOM        VALENCE       SEMI-CORE          CORE           TOTAL
:RTO001:   1        5.328379     1886.173583        0.000000     1891.501963
:RTO002:   2       15.201767      303.902303        0.000000      319.104070
     
       CHARGES OF NEW CHARGE DENSITY
:NTO   : INTERSTITIAL CHARGE =    12.316167
:NPC   : PW Pseudocharge     =    26.918943
:NTO001: CHARGE SPHERE  1    =    10.434284
:NTO002: CHARGE SPHERE  2    =     7.730263

:NEC01: NUCLEAR AND ELECTRONIC CHARGE     90.00000    90.00059
     
       CHARGES OF OLD CHARGE DENSITY
:OTO   : INTERSTITIAL CHARGE =    14.975437
:OPC   : PW Pseudocharge     =    26.828676
:OTO001: CHARGE SPHERE  1    =    10.573057
:OTO002: CHARGE SPHERE  2    =     7.217565

:NEC02: NUCLEAR AND ELECTRONIC CHARGE     90.00000    90.00000
     
       CONVERGENCE TEST
:DTO001: DIFFERENCE IN SPHERE  1 =  0.1977770
:DTO002: DIFFERENCE IN SPHERE  2 =  0.5652224

:DIS  :  CHARGE DISTANCE       ( 0.5652224 for atom    2 spin 1)      0.4427406
 PW Mixed is         2149
 
******************************************************
* MULTISECANT MIXING VER9 RELEASE 10.4.0              *
* Standard Mode with controls                        *
* Fixed density scale                                *
* Regularization       1.000E-04                     *
* Trust Upper Limit    5.000E+00                     *
* Max Number of Memory Steps    8                    *
******************************************************
 
:PWTMP   6.1772E+02  5.7600E+02  7.5905E+02
:PLANE:  PW TOTAL      8.6169 DISTAN   7.76E-01  9.01E+00 %
:CHARG:  CLM/ATOM     80.8866 DISTAN   7.36E-01  9.10E-01 %
 
Step History
        DMIX         DMIXT        Red     Pred      Trust     Lambda    MagRel    MagAbs     Beta
  1   3.5000E-02   3.5000E-02 -1.00E+00  1.00E+00 -1.00E+01  1.00E+00  3.50E-02  3.50E-02  1.00E+00
  2   3.5000E-02   3.5000E-02  7.27E-01  1.00E+00 -1.00E+01  1.00E+00  3.50E-02  1.19E-01  1.00E+00
  3   5.9817E-02   5.9817E-02  9.60E-01  1.00E+00 -1.00E+01  7.78E-02  5.98E-02  1.48E-01  1.00E+00
  4   5.4796E-02   5.4796E-02  8.71E-01  9.93E-01  3.33E-01  1.43E+00  5.46E-02  1.30E-01  9.72E-01
  5   1.3699E-01   4.4525E-02 -1.00E+00  8.17E-01  3.88E-01  1.00E+00  8.73E-02  1.81E-01  1.00E+00
:JACOBIANS    1.099E+00   4.363E-01
  
:NORMS:  1/Froebius, Min, Max, Used   0.6128E+00  0.5654E+00  0.1017E+01  0.6220E+00
:INFO :  Number of Memory Steps    4 Skipping    0
:INFO :  SLambda=    1.6609962304  Max    1.6609962304
:PREDicted Charge, CTotal, PW Trust    3.029E-01   1.564E+00   1.321E+00
:PREDicted DMix, Beta, BLim   5.4569E-01  1.5297E+00  1.9305E+00

Eigenvalues, unscaled except for SY+YY
   #     SY Real        SY Imag          SS             YY         SY+YY Real      SY+YY Imag
   1   1.590098E+00   0.000000E+00   1.180751E+00   3.257585E+00   5.761532E+00   0.000000E+00
   2   5.386241E-01   0.000000E+00   3.208012E-01   7.417289E-01   1.773641E+00   0.000000E+00
   3  -3.940747E-15   0.000000E+00   5.721639E-04   6.683703E-04   1.884839E-05   0.000000E+00
   4   6.037696E-04   0.000000E+00   9.091158E-17   1.786278E-05   1.610479E-03   0.000000E+00
 
:INFO :  Singular value  5.778E+00 Weight  1.000E+00 Projection -5.184E-01
:INFO :  Singular value  1.769E+00 Weight  1.000E+00 Projection -1.323E+00
:INFO :  Singular value  1.612E-03 Weight  9.607E-01 Projection -2.606E+01
:INFO :  Singular value  1.884E-05 Weight  3.332E-03 Projection -2.902E-01
:RANK :  ACTIVE   2.96/4  =  74.10 % ; YY RANK   2.81/4  =  70.28 %
 
Increasing CTO by   1.275
:BLIM :  VZERO Control Off
:TRUST:  Step 5.67E-01  Charge 9.08E-02 (e) CTO  4.15E-01 (e) PW  5.01E-01 (e)
:DTRUS:  Lambda    1.246E+01 Increment    7.276E-12 Iterations   132 DMIX    1.207E-01
:INFOA:  Angle SubSpace to MSR1     38.20
:DIRM :  MEMORY  4/8  SCALE   1.000 RED  0.80 PRED  0.82 NEXT  0.71 
:TRAVE:  Charge 6.45E-02 (e) CTO  3.33E-01 (e) PW  2.36E-01 (e)
:DIRP :  |MSR1|= 1.194E-01 |PRATT|= 7.760E-01 ANGLE=   5.5 DEGREES
:DIRQ :  |MSR1|= 2.202E-01 |PRATT|= 1.472E+00 ANGLE=  15.1 DEGREES
:DIRT :  |MSR1|= 2.505E-01 |PRATT|= 1.664E+00 ANGLE=  13.6 DEGREES
:MIX  :   MSE1   REGULARIZATION:  3.26E-04 GREED: 0.31987  LMStep 0.21  0.1506 CTotal         
     
       CHARGES OF MIXED CHARGE DENSITY
:CTO   : INTERSTITIAL CHARGE =    14.560322
:CPC   : PW Pseudocharge     =    26.847132
:CTO001: CHARGE SPHERE  1    =    10.550425
:CTO002: CHARGE SPHERE  2    =     7.298067

:NEC03: NUCLEAR AND ELECTRONIC CHARGE     90.00000    90.00000

PW CHANGE     H    K    L             Current                    Change               Residue
:PTO001:      0    0    0  5.45514266E-02 0.00000000E+00 -5.226E-04  0.000E+00 -3.387E-03  0.000E+00
:PTO002:      0    0   -1 -5.62538699E-10 0.00000000E+00  1.045E-10  0.000E+00  6.166E-10  0.000E+00
:PTO003:     -1    0    0 -3.88720519E-02 0.00000000E+00  2.506E-04  0.000E+00  1.422E-03  0.000E+00
:PTO004:     -1    0   -1  4.45914865E-02-7.72347183E-02 -4.408E-05  7.635E-05 -2.377E-04  4.118E-04
:PTO005:     -1    0    1  2.66595205E-02 4.61756429E-02 -3.930E-05 -6.806E-05 -1.544E-04 -2.674E-04
:PTO006:      0    0   -2 -2.89741191E-10 0.00000000E+00  4.185E-11  0.000E+00  2.506E-10  0.000E+00
:PTO007:     -2    1    0 -1.60495821E-02-2.41164040E-02 -2.297E-05 -1.345E-04 -8.926E-05 -6.407E-04
:PTO008:     -1   -1    0 -1.60495821E-02 2.41164040E-02 -2.297E-05  1.345E-04 -8.926E-05  6.407E-04
:PTO009:     -1    0   -2  3.88329933E-02 6.72607207E-02  1.962E-04  3.399E-04  9.032E-04  1.564E-03
:PTO010:     -1    0    2  1.12157134E-03-1.94261863E-03  1.697E-05 -2.939E-05 -2.159E-05  3.739E-05
:PTO011:     -2    1   -1 -4.76823465E-02-2.61439956E-02 -3.057E-04 -7.863E-05 -1.585E-03 -1.440E-04
:PTO012:     -1   -1   -1  4.64825370E-02 2.82221265E-02  2.209E-04  2.254E-04  9.173E-04  1.301E-03

:ENE  : ********** TOTAL ENERGY IN Ry =        -2644.49330536

       TOTAL FORCE IN mRy/a.u. = |F|     Fx             Fy             Fz     with/without FOR in case.in2
:FOR001:   1.ATOM          3.877          0.000          0.000         -3.877 partial forces
:FOR002:   2.ATOM        686.479       -529.040       -276.930       -338.643 partial forces
       TOTAL FORCE WITH RESPECT TO GLOBAL CARTESIAN COORDINATES:
:FCA001:   1.ATOM                        -3.357         -1.938          0.000 partial forces
:FCA002:   2.ATOM                      -529.040       -276.930       -338.643 partial forces
       TOTAL FORCE WITH RESPECT TO THE GLOBAL COORDINATE SYSTEM:
:FGL001:   1.ATOM                -3.876664049    -3.876664049     0.000000000 partial forces
:FGL002:   2.ATOM              -610.883162425  -582.371493700  -338.643326157 partial forces
 Flat Integration
 New Mode for Coulomb Integral
 Consistent 3/8+Simpson combinations
 Extension of core to zero
 LDM version in phi
 Fifth-order quadrature in outwin


            ---------
:ITE006:  6. ITERATION
            ---------

:NATO :    2 INDEPENDENT AND    9 TOTAL ATOMS IN UNITCELL
       SUBSTANCE: SiO2 for tests                                              

       LATTICE                      = H   
:POT  : POTENTIAL OPTION EX_PBE EC_PBE VX_PBE VC_PBE
:LAT  : LATTICE CONSTANTS=  9.26193  9.26193 10.21737
:VOL  : UNIT CELL VOLUME =     759.05354
       MODE OF CALCULATION IS       = RELA
       NON-SPINPOLARIZED CALCULATION
:IFFT  : FFT-parameters:   72   72   80 Factor: 2.00


   CONVERGENCE PARAMETER FOR PSEUDOCHARGE: NCON=  9
   MAXIMAL VALUE OF RMT(JATOM)*ABSK(NKK) : RK  =19.43469


:VKCOUL :  VK-COUL convergence: 0.340E-05
       ATOMNUMBER=  1 Si         VCOUL-ZERO = -0.14522E+01
:EFG001:                        EFG         =     0.20902   *10**21  V / m**2
                               V20  TOT/SRF=     0.18102    -0.00814
                               V22  TOT/SRF=     0.04120    -0.00146
                               V22M TOT/SRF=     0.04685    -0.01368
                               V21  TOT/SRF=     0.00000     0.00000
                               V21M TOT/SRF=     0.00000     0.00000

             -0.06331    0.04685    0.00000       -0.04212    0.00000    0.00000
              0.04685   -0.14572    0.00000        0.00000   -0.16690    0.00000
              0.00000    0.00000    0.20902        0.00000    0.00000    0.20902

         MAIN DIRECTIONS OF THE EFG   1.0000 -0.4522  0.0000
                                      0.4522  1.0000  0.0000
                                      0.0000  0.0000  1.0000
:ANG001:  ANGLE WITH OLD X-AXIS =        24.3

:ETA001:                         ASYMM. ETA =     0.59696


       ATOMNUMBER=  2 O          VCOUL-ZERO = -0.16397E-01
:EFG002:                        EFG         =     5.13475   *10**21  V / m**2
                               V20  TOT/SRF=     0.05999     0.02437
                               V22  TOT/SRF=     1.02844     0.58638
                               V22M TOT/SRF=    -2.22644    -1.29189
                               V21  TOT/SRF=    -2.78345    -1.59008
                               V21M TOT/SRF=     2.50029     1.39950

              0.99380   -2.22644   -2.78345        5.13475    0.00000    0.00000
             -2.22644   -1.06307    2.50029        0.00000   -2.07425    0.00000
             -2.78345    2.50029    0.06927        0.00000    0.00000   -3.06049

         MAIN DIRECTIONS OF THE EFG   1.0000  1.0000  0.0018
                                     -0.7253  0.5355  1.0000
                                     -0.9075  0.6739 -0.7973
:ANG002:  ANGLE WITH OLD X-AXIS =        45.0

:ETA002:                         ASYMM. ETA =     0.19207


     HELLMANN-FEYNMAN-FORCE IN mRy/a.u. = |F|  Fx       Fy             Fz
:FHF001:   1.ATOM      8.778241939307      0.000000000000      0.000000000000     -8.778241939307

     HELLMANN-FEYNMAN-FORCE IN mRy/a.u. = |F|  Fx       Fy             Fz
:FHF002:   2.ATOM    873.257422664440   -670.525392772067   -358.128458711131   -429.788588666096

:FIT001: LUSE= 13 SIGMA OF V-XC FIT FOR ATOM  1  0.1052282E-01
:FIT001: LUSE= 13 SIGMA OF V-XC FIT FOR ATOM  1  0.1052282E-01
:FIT002: LUSE= 13 SIGMA OF V-XC FIT FOR ATOM  2  0.9427513E-03
:FIT002: LUSE= 13 SIGMA OF V-XC FIT FOR ATOM  2  0.9427513E-03
:DEN  : DENSITY INTEGRAL  =         -1220.96702621   (Ry)
       ELS_POTENTIAL_AT Z=0 and Z=0.5:   0.05161  -0.09477
       ELS_POTENTIAL_AT Y=0 and Y=0.5:   0.00000   0.00000
:VZERO:v0,v0c,v0x  -0.67105   0.05161  -0.72265 v5,v5c,v5x  -0.74573  -0.09477  -0.65096
[...]
:DIRP :  |MSR1|= 1.113E-03 |PRATT|= 1.890E-03 ANGLE=   5.3 DEGREES
:DIRQ :  |MSR1|= 1.147E-03 |PRATT|= 1.625E-03 ANGLE=   9.9 DEGREES
:DIRT :  |MSR1|= 1.598E-03 |PRATT|= 2.493E-03 ANGLE=   9.3 DEGREES
:MIX  :   MSE1   REGULARIZATION:  5.12E-04 GREED: 0.29194  Newton 1.00  0.6412                
     
       CHARGES OF MIXED CHARGE DENSITY
:CTO   : INTERSTITIAL CHARGE =    13.599258
:CPC   : PW Pseudocharge     =    26.467345
:CTO001: CHARGE SPHERE  1    =    10.495447
:CTO002: CHARGE SPHERE  2    =     7.485734

:NEC03: NUCLEAR AND ELECTRONIC CHARGE     90.00000    90.00000

PW CHANGE     H    K    L             Current                    Change               Residue
:PTO001:      0    0    0  5.27849497E-02 0.00000000E+00 -4.782E-06  0.000E+00 -7.213E-06  0.000E+00
:PTO002:      0    0   -1 -4.91985904E-11 0.00000000E+00 -4.834E-13  0.000E+00 -8.465E-13  0.000E+00
:PTO003:     -1    0    0 -3.84366815E-02 0.00000000E+00  1.361E-06  0.000E+00  2.250E-06  0.000E+00
:PTO004:     -1    0   -1  4.44380125E-02-7.69688935E-02 -4.868E-06  8.432E-06 -7.857E-06  1.361E-05
:PTO005:     -1    0    1  2.66886353E-02 4.62260712E-02 -2.382E-06 -4.125E-06 -3.898E-06 -6.752E-06
:PTO006:      0    0   -2 -7.99328792E-11 0.00000000E+00 -2.180E-13  0.000E+00 -3.854E-13  0.000E+00
:PTO007:     -2    1    0 -1.57274097E-02-2.35652646E-02  3.109E-06  2.488E-06  5.198E-06  3.892E-06
:PTO008:     -1   -1    0 -1.57274097E-02 2.35652646E-02  3.109E-06 -2.488E-06  5.198E-06 -3.892E-06
:PTO009:     -1    0   -2  3.76267630E-02 6.51714683E-02 -3.303E-06 -5.721E-06 -4.990E-06 -8.643E-06
:PTO010:     -1    0    2  6.73297174E-04-1.16618497E-03  1.868E-06 -3.235E-06  3.492E-06 -6.048E-06
:PTO011:     -2    1   -1 -4.66784775E-02-2.44797001E-02  3.820E-06  6.239E-07  5.818E-06  1.596E-07
:PTO012:     -1   -1   -1  4.45392803E-02 2.81848982E-02 -2.450E-06 -2.997E-06 -3.047E-06 -4.958E-06

:ENE  : *WARNING** TOTAL ENERGY IN Ry =        -2644.25704526

       TOTAL FORCE IN mRy/a.u. = |F|     Fx             Fy             Fz     with/without FOR in case.in2
:FOR001:   1.ATOM          2.559          0.000          0.000          2.559 partial forces
:FOR002:   2.ATOM        153.466       -118.738        -62.000        -74.894 partial forces
       TOTAL FORCE WITH RESPECT TO GLOBAL CARTESIAN COORDINATES:
:FCA001:   1.ATOM                         2.216          1.280          0.000 partial forces
:FCA002:   2.ATOM                      -118.738        -62.000        -74.894 partial forces
       TOTAL FORCE WITH RESPECT TO THE GLOBAL COORDINATE SYSTEM:
:FGL001:   1.ATOM                 2.559190619     2.559190619     0.000000000 partial forces
:FGL002:   2.ATOM              -137.106264466  -130.553166007   -74.894091630 partial forces
 Flat Integration
 New Mode for Coulomb Integral
 Consistent 3/8+Simpson combinations
 Extension of core to zero
 LDM version in phi
 Fifth-order quadrature in outwin


            ---------
:ITE012: 12. ITERATION
            ---------

:NATO :    2 INDEPENDENT AND    9 TOTAL ATOMS IN UNITCELL
       SUBSTANCE: SiO2 for tests                                              

       LATTICE                      = H   
:POT  : POTENTIAL OPTION EX_PBE EC_PBE VX_PBE VC_PBE
:LAT  : LATTICE CONSTANTS=  9.26193  9.26193 10.21737
:VOL  : UNIT CELL VOLUME =     759.05354
       MODE OF CALCULATION IS       = RELA
       NON-SPINPOLARIZED CALCULATION
:IFFT  : FFT-parameters:   72   72   80 Factor: 2.00


   CONVERGENCE PARAMETER FOR PSEUDOCHARGE: NCON=  9
   MAXIMAL VALUE OF RMT(JATOM)*ABSK(NKK) : RK  =19.43469


:VKCOUL :  VK-COUL convergence: 0.341E-05
       ATOMNUMBER=  1 Si         VCOUL-ZERO = -0.14537E+01
:EFG001:                        EFG         =     0.77690   *10**21  V / m**2
                               V20  TOT/SRF=     0.67282     0.03432
                               V22  TOT/SRF=     0.18587     0.00548
                               V22M TOT/SRF=     0.17945    -0.00600
                               V21  TOT/SRF=     0.00000     0.00000
                               V21M TOT/SRF=     0.00000     0.00000

             -0.20258    0.17945    0.00000       -0.13008    0.00000    0.00000
              0.17945   -0.57433    0.00000        0.00000   -0.64682    0.00000
              0.00000    0.00000    0.77690        0.00000    0.00000    0.77690

         MAIN DIRECTIONS OF THE EFG   1.0000 -0.4040  0.0000
                                      0.4040  1.0000  0.0000
                                      0.0000  0.0000  1.0000
:ANG001:  ANGLE WITH OLD X-AXIS =        22.0

:ETA001:                         ASYMM. ETA =     0.66512


       ATOMNUMBER=  2 O          VCOUL-ZERO =  0.53150E-01
:EFG002:                        EFG         =     7.67486   *10**21  V / m**2
                               V20  TOT/SRF=     0.11070     0.02533
                               V22  TOT/SRF=     1.55505     0.57284
                               V22M TOT/SRF=    -3.26494    -1.26612
                               V21  TOT/SRF=    -4.16302    -1.55600
                               V21M TOT/SRF=     3.79487     1.36717

              1.49114   -3.26494   -4.16302        7.67486    0.00000    0.00000
             -3.26494   -1.61897    3.79487        0.00000   -3.03463    0.00000
             -4.16302    3.79487    0.12783        0.00000    0.00000   -4.64022

         MAIN DIRECTIONS OF THE EFG   1.0000  1.0000 -0.0194
                                     -0.7255  0.5515  1.0000
                                     -0.9164  0.6546 -0.8128
:ANG002:  ANGLE WITH OLD X-AXIS =        45.0

:ETA002:                         ASYMM. ETA =     0.20920


     HELLMANN-FEYNMAN-FORCE IN mRy/a.u. = |F|  Fx       Fy             Fz
:FHF001:   1.ATOM     25.586114581947      0.000000000000      0.000000000000     25.586114581947

     HELLMANN-FEYNMAN-FORCE IN mRy/a.u. = |F|  Fx       Fy             Fz
:FHF002:   2.ATOM    495.974744090941   -381.802578061584   -198.920146328712   -246.269189193788

:FIT001: LUSE= 13 SIGMA OF V-XC FIT FOR ATOM  1  0.1626561E-01
:FIT001: LUSE= 13 SIGMA OF V-XC FIT FOR ATOM  1  0.1626561E-01
:FIT002: LUSE= 13 SIGMA OF V-XC FIT FOR ATOM  2  0.4787929E-03
:FIT002: LUSE= 13 SIGMA OF V-XC FIT FOR ATOM  2  0.4787929E-03
:DEN  : DENSITY INTEGRAL  =         -1225.80985026   (Ry)
       ELS_POTENTIAL_AT Z=0 and Z=0.5:   0.05835  -0.10459
       ELS_POTENTIAL_AT Y=0 and Y=0.5:   0.00000   0.00000
:VZERO:v0,v0c,v0x  -0.62115   0.05835  -0.67950 v5,v5c,v5x  -0.73874  -0.10459  -0.63415
:VZERY:v0,v0c,v0x  -0.65986   0.00000  -0.65986 v5,v5c,v5x  -0.65986   0.00000  -0.65986
:VZERX:v0,v0c,v0x  -0.13559   0.21043  -0.34602 v5,v5c,v5x  -2.51141  -1.64605  -0.86535
:LMAX-WF:   10   Non-Spherical LMAX:   4

          ATOMIC SPHERE DEPENDENT PARAMETERS FOR ATOM  Si        
:e__0001: OVERALL ENERGY PARAMETER IS   -0.1024
          OVERALL BASIS SET ON ATOM IS LAPW
:E0_0001: E( 0)=   -0.1024
             APW+lo
:E1_0001: E( 1)=   -0.1024
             APW+lo

          ATOMIC SPHERE DEPENDENT PARAMETERS FOR ATOM  O         
:e__0002: OVERALL ENERGY PARAMETER IS   -0.1024
          OVERALL BASIS SET ON ATOM IS LAPW
:E0_0002: E( 0)=    0.2976
             APW+lo
:E0_0002: E( 0)=   -1.0306   E(BOTTOM)=   -2.360   E(TOP)=    0.299  1  2   234
             LOCAL ORBITAL
:E1_0002: E( 1)=   -0.1024
             APW+lo
:WARN  : P(J,JATOM) almost zero (     -0.326E-03). Shifted Energy by -0.01 down to     0.2876

       K=   0.00000   0.00000   0.00000            1
:RKM  : MATRIX SIZE  1625LOs:  42  RKM= 6.97  WEIGHT= 1.00  PGR:    
       EIGENVALUES ARE:
:EIG00001:      -1.3309429   -1.2179251   -1.2179251   -1.1696115   -1.1674386
:EIG00006:      -1.1674386   -0.5068314   -0.5068314   -0.2999564   -0.2970733
:EIG00011:      -0.2848459   -0.2848459   -0.1184250   -0.1184250   -0.1000788
:EIG00016:      -0.0818445   -0.0102062   -0.0102062   -0.0082751    0.0243516
:EIG00021:       0.0243516    0.0471241    0.0757001    0.0757001    0.5421034
:EIG00026:       0.7849290    0.7849290    0.8209365    0.8209365    0.9112894
:EIG00031:       0.9610672    1.0028598    1.0324146    1.0324146    1.0840897
:EIG00036:       1.0840897    1.1398614    1.1991475    1.2039397    1.2039397
:EIG00041:       1.2086521    1.2086521    1.3281738    1.3281738    1.4187340
:EIG00046:       1.4692680    1.4692680    1.5706909    1.5706909
 
       ********************************************************

:KPT   :      NUMBER OF K-POINTS:   143
       Insulator, EF-inconsistency corrected
:GAP (global)   :  0.443526 Ry =     6.034 eV (accurate value if proper k-mesh)
         Bandranges (emin - emax) and occupancy:
:BAN00014:  14   -0.135818   -0.095779  2.00000000
:BAN00015:  15   -0.113791   -0.077843  2.00000000
:BAN00016:  16   -0.083339   -0.046173  2.00000000
:BAN00017:  17   -0.059789   -0.010206  2.00000000
:BAN00018:  18   -0.045376   -0.010206  2.00000000
:BAN00019:  19   -0.030281    0.024154  2.00000000
:BAN00020:  20   -0.013691    0.024627  2.00000000
:BAN00021:  21    0.009021    0.035111  2.00000000
:BAN00022:  22    0.034550    0.077116  2.00000000
:BAN00023:  23    0.052407    0.087443  2.00000000
:BAN00024:  24    0.061188    0.098577  2.00000000
:BAN00025:  25    0.542103    0.763892  0.00000000
:BAN00026:  26    0.709702    0.814350  0.00000000
:BAN00027:  27    0.767043    0.823023  0.00000000
:BAN00028:  28    0.782402    0.866104  0.00000000
:BAN00029:  29    0.820937    0.879313  0.00000000
        Energy to separate low and high energystates:   -0.63620


:NOE  : NUMBER OF ELECTRONS          =   48.000

:FER  : F E R M I - ENERGY(TETRAH.M.)=   0.0985774979
:GMA  : POTENTIAL AND CHARGE CUT-OFF  12.00 Ry**.5

:POS001: ATOM   -1 X,Y,Z = 0.46913 0.46913 0.50000  MULT= 3  ZZ= 14.000  Si        

       LMMAX 25
       LM=   0 0  1 0  2 0  2 2 -2 2  3 0  3 2 -3 2  4 0  4 2 -4 2  4 4 -4 4  5 0  5 2 -5 2  5 4
        -5 4  6 0  6 2 -6 2  6 4 -6 4  6 6 -6 6

:CHA001: TOTAL VALENCE CHARGE INSIDE SPHERE   1 =   0.5715    (RMT=  1.4000 )
:PCS001: PARTIAL CHARGES SPHERE =  1 S,P,D,F,PX,PY,PZ,D-Z2,D-X2Y2,D-XY,D-XZ,D-YZ 
:QTL001: 0.1979 0.2594 0.1046 0.0082 0.0870 0.0882 0.0841 0.0126 0.0167 0.0232 0.0264 0.0256
        Q-s-low E-s-low   Q-p-low E-p-low   Q-d-low E-d-low   Q-f-low E-f-low
:EPL001:  0.0556 -1.2698    0.0482 -1.1884    0.0142 -1.1884    0.0016 -1.2358
        Q-s-hi  E-s-hi    Q-p-hi  E-p-hi    Q-d-hi  E-d-hi    Q-f-hi  E-f-hi 
:EPH001:  0.1423 -0.4352    0.2112 -0.2695    0.0904 -0.1153    0.0066 -0.0887

                      QXX         QXY         QYY         QZZ       UP TO R
:VZZ001:            -0.19412     0.19316    -0.55973     0.75385       1.400

:POS002: ATOM   -2 X,Y,Z = 0.14451 0.41337 0.61807  MULT= 6  ZZ=  8.000  O         

       LMMAX 49

:CHA002: TOTAL VALENCE CHARGE INSIDE SPHERE   2 =   5.4819    (RMT=  1.6200 )
:PCS002: PARTIAL CHARGES SPHERE =  2 S,P,D,F,PX,PY,PZ,D-Z2,D-X2Y2,D-XY,D-XZ,D-YZ 
:QTL002: 1.5832 3.8791 0.0148 0.0043 1.2867 1.3003 1.2921 0.0024 0.0032 0.0027 0.0032 0.0032
        Q-s-low E-s-low   Q-p-low E-p-low   Q-d-low E-d-low   Q-f-low E-f-low
:EPL002:  1.5079 -1.2108    0.0200 -1.2243    0.0041 -1.2228    0.0004 -1.2144
        Q-s-hi  E-s-hi    Q-p-hi  E-p-hi    Q-d-hi  E-d-hi    Q-f-hi  E-f-hi 
:EPH002:  0.0753 -0.2127    3.8590 -0.1151    0.0107 -0.1944    0.0040 -0.1836

                      QXX         QXY         QYY         QZZ       UP TO R
:VZZ002:             0.86916    -1.85366    -0.96479     0.09563       1.620

:CHA  : TOTAL VALENCE CHARGE INSIDE UNIT CELL =      48.000000

:SUM  : SUM OF EIGENVALUES =         -19.344950360


        1.ATOM      Si                    4 CORE STATES
       CORE-FORCE in mRy/a.u. = |F|      Fx             Fy             Fz
:FCO001:   1.ATOM     22.980087894288      0.000000000000      0.000000000000    -22.980087894288

:1S 001: 1S                -130.616519529 Ry
:2S 001: 2S                  -9.613122794 Ry
:2PP001: 2P*                 -6.415181440 Ry
:2P 001: 2P                  -6.367674204 Ry

        2.ATOM      O                     1 CORE STATES
       CORE-FORCE in mRy/a.u. = |F|      Fx             Fy             Fz
:FCO002:   2.ATOM    344.673702889834    264.635845864213    138.004925265359    172.402062487735

:1S 002: 1S                 -36.901768869 Ry
:CINT001 Core Integral Atom   1    9.923980
:CINT002 Core Integral Atom   2    2.003721

       DENSITY AT NUCLEUS
        JATOM        VALENCE       SEMI-CORE          CORE           TOTAL
:RTO001:   1        5.897706     1886.365901        0.000000     1892.263607
:RTO002:   2       14.552107      304.029887        0.000000      318.581994
     
       CHARGES OF NEW CHARGE DENSITY
:NTO   : INTERSTITIAL CHARGE =    13.600400
:NPC   : PW Pseudocharge     =    26.466539
:NTO001: CHARGE SPHERE  1    =    10.495502
:NTO002: CHARGE SPHERE  2    =     7.485619

:NEC01: NUCLEAR AND ELECTRONIC CHARGE     90.00000    90.00062
     
       CHARGES OF OLD CHARGE DENSITY
:OTO   : INTERSTITIAL CHARGE =    13.599258
:OPC   : PW Pseudocharge     =    26.467345
:OTO001: CHARGE SPHERE  1    =    10.495447
:OTO002: CHARGE SPHERE  2    =     7.485734

:NEC02: NUCLEAR AND ELECTRONIC CHARGE     90.00000    90.00000
     
       CONVERGENCE TEST
:DTO001: DIFFERENCE IN SPHERE  1 =  0.0001395
:DTO002: DIFFERENCE IN SPHERE  2 =  0.0002099

:DIS  :  CHARGE DISTANCE       ( 0.0002099 for atom    2 spin 1)      0.0001864
 PW Mixed is         2149
 
******************************************************
* MULTISECANT MIXING VER9 RELEASE 10.4.0              *
* Standard Mode with controls                        *
* Fixed density scale                                *
* Regularization       1.000E-04                     *
* Trust Upper Limit    5.000E+00                     *
* Max Number of Memory Steps    8                    *
******************************************************
 
:PWTMP   6.1772E+02  5.7600E+02  7.5905E+02
:PLANE:  PW TOTAL      8.2439 DISTAN   8.10E-04  9.83E-03 %
:CHARG:  CLM/ATOM     80.7736 DISTAN   3.09E-04  3.83E-04 %
 
Step History
        DMIX         DMIXT        Red     Pred      Trust     Lambda    MagRel    MagAbs     Beta
  4   5.4796E-02   5.4796E-02  8.71E-01  9.93E-01  3.33E-01  1.43E+00  5.46E-02  1.30E-01  9.72E-01
  5   1.3699E-01   4.4525E-02  8.04E-01  8.17E-01  3.88E-01  1.66E+00  8.73E-02  1.81E-01  1.00E+00
  6   3.1987E-01   1.2074E-01  7.02E-01  7.09E-01  5.67E-01  1.93E+00  1.51E-01  2.51E-01  1.00E+00
  7   3.5000E-01   2.3048E-01  5.35E-01  5.61E-01  9.98E-01  1.26E+00  3.49E-01  4.08E-01  1.00E+00
  8   3.5000E-01   3.4999E-01  1.15E-01  1.54E-01  2.54E+00  1.40E+00  1.00E+00  6.25E-01  1.00E+00
  9   2.3416E-01   2.3416E-01  6.30E-01  8.36E-01  8.20E+00  1.05E+00  3.35E-01  2.41E-02  1.00E+00
 10   3.5000E-01   3.5000E-01  1.45E-01  2.61E-01  1.09E+01  1.40E+00  9.43E-01  4.28E-02  1.00E+00
 11   2.8793E-01   2.8793E-01  3.80E-01  4.53E-01  1.46E+01  1.24E+00  8.07E-01  5.30E-03  1.00E+00
 12   2.9194E-01   2.9194E-01 -1.00E+00  5.29E-01  1.94E+01  1.00E+00  6.41E-01  1.60E-03  9.69E-01
:JACOBIANS    2.045E+00   2.285E+00
  
:NORMS:  1/Froebius, Min, Max, Used   0.8686E+00  0.7408E+00  0.1057E+01  0.8686E+00
:INFO :  Number of Memory Steps    8 Skipping    3
:INFO :  SLambda=    1.2026904626  Max    1.2026904626
:PREDicted Charge, CTotal, PW Trust    8.713E-05   4.378E-04   4.007E-03
:PREDicted DMix, Beta, BLim   5.4535E-01  1.2820E+00  1.7900E+01

Eigenvalues, unscaled except for SY+YY
   #     SY Real        SY Imag          SS             YY         SY+YY Real      SY+YY Imag
   1   2.915401E+00   0.000000E+00   3.176285E+00   4.300657E+00   7.757019E+00   0.000000E+00
   2   1.796808E+00   0.000000E+00   1.777822E+00   1.859238E+00   4.019091E+00   0.000000E+00
   3   8.882988E-01   0.000000E+00   7.802250E-01   1.059921E+00   2.137382E+00   0.000000E+00
   4   3.597875E-01   0.000000E+00   2.290167E-01   5.246547E-01   9.794437E-01   0.000000E+00
   5   1.481241E-01   0.000000E+00   6.770767E-02   2.482219E-01   4.461581E-01   0.000000E+00
   6   5.925412E-03   0.000000E+00   4.311052E-03   7.280625E-03   1.454300E-02   0.000000E+00
   7   1.723369E-06   0.000000E+00   6.530784E-06   2.399360E-05   4.557771E-06   0.000000E+00
   8   1.156814E-05   0.000000E+00   1.125113E-06   2.494063E-06   3.765253E-05   0.000000E+00
 
:INFO :  Singular value  7.793E+00 Weight  1.000E+00 Projection -9.045E-05
:INFO :  Singular value  4.013E+00 Weight  1.000E+00 Projection -4.973E-06
:INFO :  Singular value  2.134E+00 Weight  1.000E+00 Projection -5.402E-04
:INFO :  Singular value  9.789E-01 Weight  1.000E+00 Projection  4.977E-04
:INFO :  Singular value  4.458E-01 Weight  1.000E+00 Projection -9.657E-04
:INFO :  Singular value  1.454E-02 Weight  9.991E-01 Projection -1.915E-03
:INFO :  Singular value  3.766E-05 Weight  7.611E-03 Projection  7.332E-04
:INFO :  Singular value  4.556E-06 Weight  1.122E-04 Projection -2.095E-05
:RANK :  ACTIVE   6.01/8  =  75.09 % ; YY RANK   6.00/8  =  75.00 %
 
:BLIM :  VZERO Control Off
:TRUST:  Step 2.25E+01  Charge 9.37E-02 (e) CTO  4.39E-01 (e) PW  5.18E-01 (e)
:DIRM :  MEMORY  8/8  SCALE   1.000 RED  0.41 PRED  0.53 NEXT  0.57 
:TRAVE:  Charge 3.12E-03 (e) CTO  1.62E-02 (e) PW  1.65E-02 (e)
:DIRP :  |MSR1|= 6.054E-04 |PRATT|= 8.103E-04 ANGLE=   8.5 DEGREES
:DIRQ :  |MSR1|= 3.841E-04 |PRATT|= 6.181E-04 ANGLE=  33.2 DEGREES
:DIRT :  |MSR1|= 7.170E-04 |PRATT|= 1.019E-03 ANGLE=  20.6 DEGREES
:MIX  :   MSE1   REGULARIZATION:  4.30E-04 GREED: 0.33909  Newton 1.00  0.7035                
     
       CHARGES OF MIXED CHARGE DENSITY
:CTO   : INTERSTITIAL CHARGE =    13.599441
:CPC   : PW Pseudocharge     =    26.465807
:CTO001: CHARGE SPHERE  1    =    10.495484
:CTO002: CHARGE SPHERE  2    =     7.485685

:NEC03: NUCLEAR AND ELECTRONIC CHARGE     90.00000    90.00000

PW CHANGE     H    K    L             Current                    Change               Residue
:PTO001:      0    0    0  5.27831643E-02 0.00000000E+00 -1.785E-06  0.000E+00 -1.966E-06  0.000E+00
:PTO002:      0    0   -1 -4.94650769E-11 0.00000000E+00 -2.665E-13  0.000E+00 -3.619E-13  0.000E+00
:PTO003:     -1    0    0 -3.84349921E-02 0.00000000E+00  1.689E-06  0.000E+00  2.994E-06  0.000E+00
:PTO004:     -1    0   -1  4.44355479E-02-7.69646247E-02 -2.465E-06  4.269E-06 -3.058E-06  5.296E-06
:PTO005:     -1    0    1  2.66871241E-02 4.62234536E-02 -1.511E-06 -2.618E-06 -2.108E-06 -3.651E-06
:PTO006:      0    0   -2 -8.00560388E-11 0.00000000E+00 -1.232E-13  0.000E+00 -1.655E-13  0.000E+00
:PTO007:     -2    1    0 -1.57262052E-02-2.35644202E-02  1.204E-06  8.444E-07  1.165E-06  9.750E-07
:PTO008:     -1   -1    0 -1.57262052E-02 2.35644202E-02  1.204E-06 -8.444E-07  1.165E-06 -9.750E-07
:PTO009:     -1    0   -2  3.76256508E-02 6.51695421E-02 -1.112E-06 -1.926E-06 -1.335E-06 -2.312E-06
:PTO010:     -1    0    2  6.74306646E-04-1.16793343E-03  1.009E-06 -1.748E-06  1.058E-06 -1.832E-06
:PTO011:     -2    1   -1 -4.66768761E-02-2.44801048E-02  1.601E-06 -4.047E-07  2.235E-06 -6.784E-07
:PTO012:     -1   -1   -1  4.45388301E-02 2.81833090E-02 -4.502E-07 -1.589E-06 -5.299E-07 -2.275E-06

:ENE  : *WARNING** TOTAL ENERGY IN Ry =        -2644.25706007

       TOTAL FORCE IN mRy/a.u. = |F|     Fx             Fy             Fz     with/without FOR in case.in2
:FOR001:   1.ATOM          2.606          0.000          0.000          2.606 partial forces
:FOR002:   2.ATOM        151.311       -117.167        -60.915        -73.867 partial forces
       TOTAL FORCE WITH RESPECT TO GLOBAL CARTESIAN COORDINATES:
:FCA001:   1.ATOM                         2.257          1.303          0.000 partial forces
:FCA002:   2.ATOM                      -117.167        -60.915        -73.867 partial forces
       TOTAL FORCE WITH RESPECT TO THE GLOBAL COORDINATE SYSTEM:
:FGL001:   1.ATOM                 2.606026688     2.606026688     0.000000000 partial forces
:FGL002:   2.ATOM              -135.292488748  -128.561465438   -73.867126706 partial forces
