
:LABEL1: Calculations in /home/cmueller/wien/FZU/src/quartz/500k
:LABEL2: on cv036 at Wed Jun 12 02:06:32 PM CEST 2024
:LABEL3: using WIEN2k_19.1 (Release 25/6/2019) in /home/cmueller/WIENROOT
:LABEL4: using the command: runsp_lapw
 Flat Integration
 New Mode for Coulomb Integral
 Consistent 3/8+Simpson combinations
 Extension of core to zero
 LDM version in phi
 Fifth-order quadrature in outwin


            ---------
:ITE001:  1. ITERATION
            ---------

:NATO :    2 INDEPENDENT AND    9 TOTAL ATOMS IN UNITCELL
       SUBSTANCE: SiO2 for tests                                              

       LATTICE                      = H   
:POT  : POTENTIAL OPTION EX_PBE EC_PBE VX_PBE VC_PBE
:LAT  : LATTICE CONSTANTS=  9.26193  9.26193 10.21737
:VOL  : UNIT CELL VOLUME =     759.05354
       MODE OF CALCULATION IS       = RELA
       SPINPOLARIZED CALCULATION
:IFFT  : FFT-parameters:   72   72   80 Factor: 2.00


   CONVERGENCE PARAMETER FOR PSEUDOCHARGE: NCON=  9
   MAXIMAL VALUE OF RMT(JATOM)*ABSK(NKK) : RK  =19.43469


:VKCOUL :  VK-COUL convergence: 0.439E-05
       ATOMNUMBER=  1 Si         VCOUL-ZERO = -0.14366E+01
:EFG001:                        EFG         =     0.02023   *10**21  V / m**2
                               V20  TOT/SRF=    -0.01366    -0.01576
                               V22  TOT/SRF=     0.00026     0.00378
                               V22M TOT/SRF=    -0.01234    -0.02031
                               V21  TOT/SRF=     0.00000     0.00000
                               V21M TOT/SRF=     0.00000     0.00000

              0.00815   -0.01234    0.00000        0.02023    0.00000    0.00000
             -0.01234    0.00762    0.00000        0.00000   -0.00446    0.00000
              0.00000    0.00000   -0.01577        0.00000    0.00000   -0.01577

         MAIN DIRECTIONS OF THE EFG   1.0000  0.9788  0.0000
                                     -0.9788  1.0000  0.0000
                                      0.0000  0.0000  1.0000
:ANG001:  ANGLE WITH OLD X-AXIS =        44.4

:ETA001:                         ASYMM. ETA =     0.55936


       ATOMNUMBER=  2 O          VCOUL-ZERO = -0.80426E-01
:EFG002:                        EFG         =     2.34022   *10**21  V / m**2
                               V20  TOT/SRF=     0.01775     0.02253
                               V22  TOT/SRF=     0.46621     0.58167
                               V22M TOT/SRF=    -1.03110    -1.28760
                               V21  TOT/SRF=    -1.27074    -1.58634
                               V21M TOT/SRF=     1.11976     1.39844

              0.45596   -1.03110   -1.27074        2.34022    0.00000    0.00000
             -1.03110   -0.47646    1.11976        0.00000   -0.96512    0.00000
             -1.27074    1.11976    0.02049        0.00000    0.00000   -1.37510

         MAIN DIRECTIONS OF THE EFG   1.0000  1.0000  0.0171
                                     -0.7225  0.5266  1.0000
                                     -0.8966  0.6910 -0.7868
:ANG002:  ANGLE WITH OLD X-AXIS =        45.0

:ETA002:                         ASYMM. ETA =     0.17519


     HELLMANN-FEYNMAN-FORCE IN mRy/a.u. = |F|  Fx       Fy             Fz
:FHF001:   1.ATOM      0.660338428314      0.000000000000      0.000000000000     -0.660338428314

     HELLMANN-FEYNMAN-FORCE IN mRy/a.u. = |F|  Fx       Fy             Fz
:FHF002:   2.ATOM   1081.743219788848   -835.469666171216   -428.244727353585   -537.368852801085

:FIT001: LUSE= 13 SIGMA OF V-XC FIT FOR ATOM  1  0.7083896E-02
:FIT001: LUSE= 13 SIGMA OF V-XC FIT FOR ATOM  1  0.7083896E-02
:FIT002: LUSE= 13 SIGMA OF V-XC FIT FOR ATOM  2  0.1340515E-02
:FIT002: LUSE= 13 SIGMA OF V-XC FIT FOR ATOM  2  0.1340515E-02
:DEN  : DENSITY INTEGRAL  =         -1213.65209575   (Ry)
       ELS_POTENTIAL_AT Z=0 and Z=0.5:   0.04924  -0.09870
       ELS_POTENTIAL_AT Y=0 and Y=0.5:   0.00000   0.00000
:VZERO:v0,v0c,v0x  -0.68174   0.04924  -0.73098 v5,v5c,v5x  -0.78851  -0.09870  -0.68981
:VZERY:v0,v0c,v0x  -0.70684   0.00000  -0.70684 v5,v5c,v5x  -0.70684   0.00000  -0.70684
:VZERX:v0,v0c,v0x  -0.19278   0.24115  -0.43394 v5,v5c,v5x  -2.60401  -1.66125  -0.94276
:LMAX-WF:   10   Non-Spherical LMAX:   4

          ATOMIC SPHERE DEPENDENT PARAMETERS FOR ATOM  Si        
:e__0001: OVERALL ENERGY PARAMETER IS    0.3000
          OVERALL BASIS SET ON ATOM IS LAPW
:E0_0001: E( 0)=    0.3000
             APW+lo
:E1_0001: E( 1)=    0.3000
             APW+lo

          ATOMIC SPHERE DEPENDENT PARAMETERS FOR ATOM  O         
:e__0002: OVERALL ENERGY PARAMETER IS    0.3000
          OVERALL BASIS SET ON ATOM IS LAPW
:E0_0002: E( 0)=    0.7000
             APW+lo
:E0_0002: E( 0)=   -1.3125   E(BOTTOM)=   -2.596   E(TOP)=   -0.029  1  2   227
             LOCAL ORBITAL
:E1_0002: E( 1)=    0.3000
             APW+lo

       K=   0.00000   0.00000   0.00000            1
:RKM  : MATRIX SIZE  1625LOs:  42  RKM= 6.97  WEIGHT= 1.00  PGR:    
       EIGENVALUES ARE:
:EIG00001:      -1.5337335   -1.4411529   -1.4411529   -1.4032324   -1.4020544
:EIG00006:      -1.4020544   -0.6733388   -0.6733388   -0.4965059   -0.4916903
:EIG00011:      -0.4798361   -0.4798361   -0.3064939   -0.3064939   -0.2950819
:EIG00016:      -0.2783848   -0.2312958   -0.2312958   -0.2287494   -0.1966308
:EIG00021:      -0.1966308   -0.1787817   -0.1550107   -0.1550107    0.4492100
:EIG00026:       0.7232531    0.7232531    0.7386762    0.7386762    0.8434397
:EIG00031:       0.8529819    0.9179382    0.9299848    0.9299849    0.9516003
:EIG00036:       0.9516004    1.0301086    1.1219674    1.1340356    1.1340356
:EIG00041:       1.1492873    1.1492873    1.2637802    1.2637802    1.3567079
:EIG00046:       1.4031372    1.4031372    1.5191633    1.5191633    1.6021189
 
:EIG00051:       1.6103445    1.6103445    1.6767738    1.8027086    1.8027086
:EIG00056:       1.8145228    1.8885771    1.9014355    1.9014355    1.9311295
:EIG00061:       1.9986548    1.9986548
       ********************************************************

:KPT   :      NUMBER OF K-POINTS:    50
:LMAX-WF:   10   Non-Spherical LMAX:   4

          ATOMIC SPHERE DEPENDENT PARAMETERS FOR ATOM  Si        
:e__0001: OVERALL ENERGY PARAMETER IS    0.3000
          OVERALL BASIS SET ON ATOM IS LAPW
:E0_0001: E( 0)=    0.3000
             APW+lo
:E1_0001: E( 1)=    0.3000
             APW+lo

          ATOMIC SPHERE DEPENDENT PARAMETERS FOR ATOM  O         
:e__0002: OVERALL ENERGY PARAMETER IS    0.3000
          OVERALL BASIS SET ON ATOM IS LAPW
:E0_0002: E( 0)=    0.7000
             APW+lo
:E0_0002: E( 0)=   -1.3125   E(BOTTOM)=   -2.596   E(TOP)=   -0.029  1  2   227
             LOCAL ORBITAL
:E1_0002: E( 1)=    0.3000
             APW+lo

       K=   0.00000   0.00000   0.00000            1
:RKM  : MATRIX SIZE  1625LOs:  42  RKM= 6.97  WEIGHT= 1.00  PGR:    
       EIGENVALUES ARE:
:EIG00001:      -1.5337335   -1.4411529   -1.4411529   -1.4032324   -1.4020544
:EIG00006:      -1.4020544   -0.6733388   -0.6733388   -0.4965059   -0.4916903
:EIG00011:      -0.4798361   -0.4798361   -0.3064939   -0.3064939   -0.2950819
:EIG00016:      -0.2783848   -0.2312958   -0.2312958   -0.2287494   -0.1966308
:EIG00021:      -0.1966308   -0.1787817   -0.1550107   -0.1550107    0.4492100
:EIG00026:       0.7232531    0.7232531    0.7386762    0.7386762    0.8434397
:EIG00031:       0.8529819    0.9179382    0.9299848    0.9299849    0.9516003
:EIG00036:       0.9516004    1.0301086    1.1219674    1.1340356    1.1340356
:EIG00041:       1.1492873    1.1492873    1.2637802    1.2637802    1.3567079
:EIG00046:       1.4031372    1.4031372    1.5191633    1.5191633    1.6021189
 
:EIG00051:       1.6103445    1.6103445    1.6767738    1.8027086    1.8027086
:EIG00056:       1.8145228    1.8885771    1.9014355    1.9014355    1.9311295
:EIG00061:       1.9986548    1.9986548
       ********************************************************

:KPT   :      NUMBER OF K-POINTS:    50
       Insulator, EF-inconsistency corrected
:GAP (global)   :  0.589927 Ry =     8.026 eV (accurate value if proper k-mesh)
:GAP (this spin):  0.589927 Ry =     8.026 eV (accurate value if proper k-mesh)
         Bandranges (emin - emax) and occupancy:
:BAN00014:  14   -0.319485   -0.291531  1.00000000
:BAN00015:  15   -0.298026   -0.280486  1.00000000
:BAN00016:  16   -0.281093   -0.255186  1.00000000
:BAN00017:  17   -0.263249   -0.231296  1.00000000
:BAN00018:  18   -0.248190   -0.227464  1.00000000
:BAN00019:  19   -0.246308   -0.198091  1.00000000
:BAN00020:  20   -0.227412   -0.196631  1.00000000
:BAN00021:  21   -0.208875   -0.188798  1.00000000
:BAN00022:  22   -0.189264   -0.152528  1.00000000
:BAN00023:  23   -0.174355   -0.147828  1.00000000
:BAN00024:  24   -0.165097   -0.140717  1.00000000
:BAN00025:  25    0.449210    0.653500  0.00000000
:BAN00026:  26    0.573090    0.723253  0.00000000
:BAN00027:  27    0.696909    0.744444  0.00000000
:BAN00028:  28    0.734523    0.775339  0.00000000
:BAN00029:  29    0.738676    0.800701  0.00000000
        Energy to separate low and high energystates:   -0.78952


:NOE  : NUMBER OF ELECTRONS          =   48.000

:FER  : F E R M I - ENERGY(TETRAH.M.)=  -0.1407169513
:GMA  : POTENTIAL AND CHARGE CUT-OFF  12.00 Ry**.5

:POS001: ATOM   -1 X,Y,Z = 0.46913 0.46913 0.50000  MULT= 3  ZZ= 14.000  Si        

       LMMAX 25
       LM=   0 0  1 0  2 0  2 2 -2 2  3 0  3 2 -3 2  4 0  4 2 -4 2  4 4 -4 4  5 0  5 2 -5 2  5 4
        -5 4  6 0  6 2 -6 2  6 4 -6 4  6 6 -6 6

:CHA001: TOTAL VALENCE CHARGE INSIDE SPHERE   1 =   0.2341    (RMT=  1.4000 )
:PCS001: PARTIAL CHARGES SPHERE =  1 S,P,D,F,PX,PY,PZ,D-Z2,D-X2Y2,D-XY,D-XZ,D-YZ 
:QTL001: 0.0815 0.1045 0.0433 0.0041 0.0351 0.0354 0.0340 0.0048 0.0067 0.0097 0.0112 0.0109
        Q-s-low E-s-low   Q-p-low E-p-low   Q-d-low E-d-low   Q-f-low E-f-low
:EPL001:  0.0213 -1.4842    0.0200 -1.4191    0.0066 -1.4190    0.0008 -1.4569
        Q-s-hi  E-s-hi    Q-p-hi  E-p-hi    Q-d-hi  E-d-hi    Q-f-hi  E-f-hi 
:EPH001:  0.0602 -0.6142    0.0845 -0.4687    0.0367 -0.3427    0.0032 -0.3281

                      QXX         QXY         QYY         QZZ       UP TO R
:VZZ001:            -0.10947     0.09613    -0.17477     0.28424       1.400

:POS002: ATOM   -2 X,Y,Z = 0.14451 0.41337 0.61807  MULT= 6  ZZ=  8.000  O         

       LMMAX 49

:CHA002: TOTAL VALENCE CHARGE INSIDE SPHERE   2 =   2.9478    (RMT=  1.6200 )
:PCS002: PARTIAL CHARGES SPHERE =  2 S,P,D,F,PX,PY,PZ,D-Z2,D-X2Y2,D-XY,D-XZ,D-YZ 
:QTL002: 0.8163 2.1236 0.0058 0.0018 0.7033 0.7130 0.7073 0.0009 0.0013 0.0010 0.0013 0.0013
        Q-s-low E-s-low   Q-p-low E-p-low   Q-d-low E-d-low   Q-f-low E-f-low
:EPL002:  0.7891 -1.4366    0.0090 -1.4457    0.0018 -1.4453    0.0002 -1.4393
        Q-s-hi  E-s-hi    Q-p-hi  E-p-hi    Q-d-hi  E-d-hi    Q-f-hi  E-f-hi 
:EPH002:  0.0272 -0.3922    2.1147 -0.3245    0.0041 -0.4097    0.0017 -0.3893

                      QXX         QXY         QYY         QZZ       UP TO R
:VZZ002:             0.62868    -1.39610    -0.69018     0.06150       1.620

:CHA  : TOTAL VALENCE CHARGE INSIDE UNIT CELL =      24.000000

:SUM  : SUM OF EIGENVALUES =         -14.692693647

       Insulator, EF-inconsistency corrected
:GAP (global)   :  0.589927 Ry =     8.026 eV (accurate value if proper k-mesh)
:GAP (this spin):  0.589927 Ry =     8.026 eV (accurate value if proper k-mesh)
         Bandranges (emin - emax) and occupancy:
:BAN00014:  14   -0.319485   -0.291531  1.00000000
:BAN00015:  15   -0.298026   -0.280486  1.00000000
:BAN00016:  16   -0.281093   -0.255186  1.00000000
:BAN00017:  17   -0.263249   -0.231296  1.00000000
:BAN00018:  18   -0.248190   -0.227464  1.00000000
:BAN00019:  19   -0.246308   -0.198091  1.00000000
:BAN00020:  20   -0.227412   -0.196631  1.00000000
:BAN00021:  21   -0.208875   -0.188798  1.00000000
:BAN00022:  22   -0.189264   -0.152528  1.00000000
:BAN00023:  23   -0.174355   -0.147828  1.00000000
:BAN00024:  24   -0.165097   -0.140717  1.00000000
:BAN00025:  25    0.449210    0.653500  0.00000000
:BAN00026:  26    0.573090    0.723253  0.00000000
:BAN00027:  27    0.696909    0.744444  0.00000000
:BAN00028:  28    0.734523    0.775339  0.00000000
:BAN00029:  29    0.738676    0.800701  0.00000000
        Energy to separate low and high energystates:   -0.78952


:NOE  : NUMBER OF ELECTRONS          =   48.000

:FER  : F E R M I - ENERGY(TETRAH.M.)=  -0.1407169513
:GMA  : POTENTIAL AND CHARGE CUT-OFF  12.00 Ry**.5

:POS001: ATOM   -1 X,Y,Z = 0.46913 0.46913 0.50000  MULT= 3  ZZ= 14.000  Si        

       LMMAX 25
       LM=   0 0  1 0  2 0  2 2 -2 2  3 0  3 2 -3 2  4 0  4 2 -4 2  4 4 -4 4  5 0  5 2 -5 2  5 4
        -5 4  6 0  6 2 -6 2  6 4 -6 4  6 6 -6 6

:CHA001: TOTAL VALENCE CHARGE INSIDE SPHERE   1 =   0.2341    (RMT=  1.4000 )
:PCS001: PARTIAL CHARGES SPHERE =  1 S,P,D,F,PX,PY,PZ,D-Z2,D-X2Y2,D-XY,D-XZ,D-YZ 
:QTL001: 0.0815 0.1045 0.0433 0.0041 0.0351 0.0354 0.0340 0.0048 0.0067 0.0097 0.0112 0.0109
        Q-s-low E-s-low   Q-p-low E-p-low   Q-d-low E-d-low   Q-f-low E-f-low
:EPL001:  0.0213 -1.4842    0.0200 -1.4191    0.0066 -1.4190    0.0008 -1.4569
        Q-s-hi  E-s-hi    Q-p-hi  E-p-hi    Q-d-hi  E-d-hi    Q-f-hi  E-f-hi 
:EPH001:  0.0602 -0.6142    0.0845 -0.4687    0.0367 -0.3427    0.0032 -0.3281

                      QXX         QXY         QYY         QZZ       UP TO R
:VZZ001:            -0.10947     0.09613    -0.17477     0.28424       1.400

:POS002: ATOM   -2 X,Y,Z = 0.14451 0.41337 0.61807  MULT= 6  ZZ=  8.000  O         

       LMMAX 49

:CHA002: TOTAL VALENCE CHARGE INSIDE SPHERE   2 =   2.9478    (RMT=  1.6200 )
:PCS002: PARTIAL CHARGES SPHERE =  2 S,P,D,F,PX,PY,PZ,D-Z2,D-X2Y2,D-XY,D-XZ,D-YZ 
:QTL002: 0.8163 2.1236 0.0058 0.0018 0.7033 0.7130 0.7073 0.0009 0.0013 0.0010 0.0013 0.0013
        Q-s-low E-s-low   Q-p-low E-p-low   Q-d-low E-d-low   Q-f-low E-f-low
:EPL002:  0.7891 -1.4366    0.0090 -1.4457    0.0018 -1.4453    0.0002 -1.4393
        Q-s-hi  E-s-hi    Q-p-hi  E-p-hi    Q-d-hi  E-d-hi    Q-f-hi  E-f-hi 
:EPH002:  0.0272 -0.3922    2.1147 -0.3245    0.0041 -0.4097    0.0017 -0.3893

                      QXX         QXY         QYY         QZZ       UP TO R
:VZZ002:             0.62868    -1.39610    -0.69018     0.06150       1.620

:CHA  : TOTAL VALENCE CHARGE INSIDE UNIT CELL =      24.000000

:SUM  : SUM OF EIGENVALUES =         -14.692693647


        1.ATOM      Si                    4 CORE STATES
       CORE-FORCE in mRy/a.u. = |F|      Fx             Fy             Fz
:FCO001:   1.ATOM      1.783675550522      0.000000000000      0.000000000000     -1.783675550522

:1S 001: 1S                -130.525094101 Ry
:2S 001: 2S                  -9.542215991 Ry
:2PP001: 2P*                 -6.344054225 Ry
:2P 001: 2P                  -6.296687983 Ry

        2.ATOM      O                     1 CORE STATES
       CORE-FORCE in mRy/a.u. = |F|      Fx             Fy             Fz
:FCO002:   2.ATOM    276.523919606511    213.560191267185    109.476952742034    137.376561460787

:1S 002: 1S                 -37.323263231 Ry

        1.ATOM      Si                    4 CORE STATES
       CORE-FORCE in mRy/a.u. = |F|      Fx             Fy             Fz
:FCO001:   1.ATOM      1.783675550540      0.000000000000      0.000000000000     -1.783675550540

:1S 001: 1S                -130.525094101 Ry
:2S 001: 2S                  -9.542215991 Ry
:2PP001: 2P*                 -6.344054225 Ry
:2P 001: 2P                  -6.296687983 Ry

        2.ATOM      O                     1 CORE STATES
       CORE-FORCE in mRy/a.u. = |F|      Fx             Fy             Fz
:FCO002:   2.ATOM    276.523919606580    213.560191267143    109.476952742211    137.376561460853

:1S 002: 1S                 -37.323263231 Ry
:CINT001 Core Integral Atom   1 Up    4.960627 Dn   4.960627 Total   9.921255
:CINT002 Core Integral Atom   2 Up    1.001945 Dn   1.001945 Total   2.003890

       DENSITY AT NUCLEUS
        JATOM        VALENCE       SEMI-CORE          CORE           TOTAL
:RTO001:   1        4.830668     1885.991394        0.000000     1890.822062
:RTO002:   2       15.670298      303.971913        0.000000      319.642211

       HYPERFINE FIELDS FOR THOMSON RADIUS
:HFF001:            0.000           0.000           0.000           0.000 (KGAUSS)
:HFF002:           -0.000          -0.000           0.000          -0.000 (KGAUSS)
     
       CHARGES OF NEW CHARGE DENSITY
:NTO   : INTERSTITIAL     UP =     5.717425 DN =     5.717425 TOT =    11.434850
:NPC   : PW Pseudocharge  UP =    13.509751 DN =    13.509751 TOT =    27.019503
:NTO001: CHARGE SPHERE  1 UP =     5.194766 DN =     5.194766 TOT =    10.389532
:NTO002: CHARGE SPHERE  2 UP =     3.949762 DN =     3.949762 TOT =     7.899523

:NEC01: NUCLEAR AND ELECTRONIC CHARGE     90.00000    90.00058
     
       CHARGES OF OLD CHARGE DENSITY
:OTO   : INTERSTITIAL     UP =     7.844840 DN =     7.844840 TOT =    15.689680
:OPC   : PW Pseudocharge  UP =    11.820419 DN =    11.820419 TOT =    23.640838
:OTO001: CHARGE SPHERE  1 UP =     5.305119 DN =     5.305119 TOT =    10.610239
:OTO002: CHARGE SPHERE  2 UP =     3.540138 DN =     3.540138 TOT =     7.080276

:NEC02: NUCLEAR AND ELECTRONIC CHARGE     90.00000    90.00205
     
       CONVERGENCE TEST
:DTO001: DIFFERENCE SPHERE  1 UP =  0.1588935 DN =  0.1588935 TOT =  0.3177870
:DTO002: DIFFERENCE SPHERE  2 UP =  0.4784995 DN =  0.4784995 TOT =  0.9569991

:DIS  :  CHARGE DISTANCE       ( 0.4784995 for atom    2 spin 2)      1.4878567
 PW Mixed is         2149
 
******************************************************
* MULTISECANT MIXING VER9 RELEASE 10.4.0              *
* Standard Mode with controls                        *
* Fixed density scale                                *
* Regularization       1.000E-04                     *
* Trust Upper Limit    5.000E+00                     *
* Max Number of Memory Steps    8                    *
******************************************************
 
:PWTMP   6.1772E+02  5.7600E+02  7.5905E+02
:PLANE:  PW TOTAL     10.0971 DISTAN   3.34E+00  3.31E+01 %
:CHARG:  CLM/ATOM     57.2047 DISTAN   8.67E-01  1.52E+00 %
INFO: Reducing dbase  2.50000E-02 1.48786E+00 2.04955E-02
 
Step History
        DMIX         DMIXT        Red     Pred      Trust     Lambda    MagRel    MagAbs     Beta
  1   3.5000E-02   3.5000E-02 -1.00E+00  1.00E+00 -1.00E+01  1.00E+00  3.50E-02  3.50E-02  1.00E+00
:INFO :  Note, Pratt in use
INFO: Reducing dbase  2.04955E-02 1.48786E+00 1.68027E-02
:TRUST:  Step 4.53E-02  Charge 7.50E-02 (e) CTO  2.69E-01 (e) PW  3.77E-01 (e)
:DIRM :  MEMORY  0/ 8 SCALE   1.000
Performing Pseudo Compensation
Final Pseudo Compensation Rescaling     9.99810E-01
Final Pseudo Compensation Rescaling     9.99810E-01
:MIX  :   PRATT  REGULARIZATION:  1.00E-04 GREED: 0.03020                  
     
       CHARGES OF MIXED CHARGE DENSITY
:CTO   : INTERSTITIAL     UP =     7.779583 DN =     7.779583 TOT =    15.559166
:CPC   : PW Pseudocharge  UP =    12.930091 DN =    12.930091 TOT =    25.860182
:CTO001: CHARGE SPHERE  1 UP =     5.301786 DN =     5.301786 TOT =    10.603573
:CTO002: CHARGE SPHERE  2 UP =     3.552510 DN =     3.552510 TOT =     7.105019

       SPIN MAGNETIC MOMENTS OF MIXED CHARGE DENSITY
:MMINT:  MAGNETIC MOMENT IN INTERSTITIAL  =    0.00000
:MMI001: MAGNETIC MOMENT IN SPHERE   1    =   -0.00000
:MMI002: MAGNETIC MOMENT IN SPHERE   2    =    0.00000
:MMTOT:  SPIN MAGNETIC MOMENT IN CELL     =   -0.00000

:NEC03: NUCLEAR AND ELECTRONIC CHARGE     90.00000    90.00000

PW CHANGE     H    K    L             Current                    Change               Residue
:PUP001:      0    0    0  2.72835486E-02 0.00000000E+00  1.379E-03  0.000E+00 -5.750E-04  0.000E+00
:PUP002:      0    0   -1 -3.96927727E-10-4.18434181E-20  1.157E-11 -4.184E-20  3.830E-10  0.000E+00
:PUP003:     -1    0    0 -1.96130389E-02 0.00000000E+00 -2.157E-04  0.000E+00  9.664E-04  0.000E+00
:PUP004:     -1    0   -1  2.20333024E-02-3.81627982E-02  7.254E-04 -1.256E-03  7.075E-04 -1.225E-03
:PUP005:     -1    0    1  1.32909882E-02 2.30206664E-02  1.765E-04  3.058E-04 -5.716E-06 -9.901E-06
:PUP006:      0    0   -2 -1.82647088E-10 7.51662570E-20 -1.639E-11  7.517E-20  1.255E-10  0.000E+00
:PUP007:     -2    1    0 -7.78715854E-03-1.08798035E-02 -5.036E-04 -2.452E-03 -8.594E-04 -4.143E-03
:PUP008:     -1   -1    0 -7.78715854E-03 1.08798035E-02 -5.036E-04  2.452E-03 -8.594E-04  4.143E-03
:PUP009:     -1    0   -2  1.73841020E-02 3.01101490E-02  4.316E-03  7.475E-03  7.170E-03  1.242E-02
:PUP010:     -1    0    2 -1.50440644E-04 2.60570359E-04  1.653E-03 -2.864E-03  2.457E-03 -4.256E-03
:PUP011:     -2    1   -1 -2.13817612E-02-1.10986463E-02 -5.033E-03 -4.490E-03 -8.674E-03 -6.937E-03
:PUP012:     -1   -1   -1  2.03025900E-02 1.29678255E-02  6.405E-03  2.113E-03  1.034E-02  4.043E-03
  
:PDN001:      0    0    0  2.72835486E-02 0.00000000E+00  1.379E-03  0.000E+00 -5.750E-04  0.000E+00
:PDN002:      0    0   -1 -3.96927727E-10-4.18434181E-20  1.157E-11 -4.184E-20  3.830E-10  0.000E+00
:PDN003:     -1    0    0 -1.96130389E-02 0.00000000E+00 -2.157E-04  0.000E+00  9.664E-04  0.000E+00
:PDN004:     -1    0   -1  2.20333024E-02-3.81627982E-02  7.254E-04 -1.256E-03  7.075E-04 -1.225E-03
:PDN005:     -1    0    1  1.32909882E-02 2.30206664E-02  1.765E-04  3.058E-04 -5.716E-06 -9.901E-06
:PDN006:      0    0   -2 -1.82647088E-10 7.51662570E-20 -1.639E-11  7.517E-20  1.255E-10  0.000E+00
:PDN007:     -2    1    0 -7.78715854E-03-1.08798035E-02 -5.036E-04 -2.452E-03 -8.594E-04 -4.143E-03
:PDN008:     -1   -1    0 -7.78715854E-03 1.08798035E-02 -5.036E-04  2.452E-03 -8.594E-04  4.143E-03
:PDN009:     -1    0   -2  1.73841020E-02 3.01101490E-02  4.316E-03  7.475E-03  7.170E-03  1.242E-02
:PDN010:     -1    0    2 -1.50440644E-04 2.60570359E-04  1.653E-03 -2.864E-03  2.457E-03 -4.256E-03
:PDN011:     -2    1   -1 -2.13817612E-02-1.10986463E-02 -5.033E-03 -4.490E-03 -8.674E-03 -6.937E-03
:PDN012:     -1   -1   -1  2.03025900E-02 1.29678255E-02  6.405E-03  2.113E-03  1.034E-02  4.043E-03

:ENE  : ********** TOTAL ENERGY IN Ry =        -2644.94508351

       TOTAL FORCE IN mRy/a.u. = |F|     Fx             Fy             Fz     with/without FOR in case.in2
:FOR001:   1.ATOM          2.444          0.000          0.000         -2.444 partial forces
:FOR002:   2.ATOM        805.219       -621.909       -318.768       -399.992 partial forces
       TOTAL FORCE WITH RESPECT TO GLOBAL CARTESIAN COORDINATES:
:FCA001:   1.ATOM                        -2.117         -1.222          0.000 partial forces
:FCA002:   2.ATOM                      -621.909       -318.768       -399.992 partial forces
       TOTAL FORCE WITH RESPECT TO THE GLOBAL COORDINATE SYSTEM:
:FGL001:   1.ATOM                -2.444013979    -2.444013979     0.000000000 partial forces
:FGL002:   2.ATOM              -718.119205495  -677.827377359  -399.992291340 partial forces
 Flat Integration
 New Mode for Coulomb Integral
 Consistent 3/8+Simpson combinations
 Extension of core to zero
 LDM version in phi
 Fifth-order quadrature in outwin


            ---------
:ITE002:  2. ITERATION
            ---------

:NATO :    2 INDEPENDENT AND    9 TOTAL ATOMS IN UNITCELL
       SUBSTANCE: SiO2 for tests                                              

       LATTICE                      = H   
:POT  : POTENTIAL OPTION EX_PBE EC_PBE VX_PBE VC_PBE
:LAT  : LATTICE CONSTANTS=  9.26193  9.26193 10.21737
:VOL  : UNIT CELL VOLUME =     759.05354
       MODE OF CALCULATION IS       = RELA
       SPINPOLARIZED CALCULATION
:IFFT  : FFT-parameters:   72   72   80 Factor: 2.00


   CONVERGENCE PARAMETER FOR PSEUDOCHARGE: NCON=  9
   MAXIMAL VALUE OF RMT(JATOM)*ABSK(NKK) : RK  =19.43469


:VKCOUL :  VK-COUL convergence: 0.349E-05
       ATOMNUMBER=  1 Si         VCOUL-ZERO = -0.14340E+01
:EFG001:                        EFG         =    -0.00706   *10**21  V / m**2
                               V20  TOT/SRF=     0.00097    -0.01560
                               V22  TOT/SRF=     0.00154     0.00298
                               V22M TOT/SRF=    -0.00632    -0.01963
                               V21  TOT/SRF=     0.00000     0.00000
                               V21M TOT/SRF=     0.00000     0.00000

              0.00098   -0.00632    0.00000        0.00595    0.00000    0.00000
             -0.00632   -0.00210    0.00000        0.00000   -0.00706    0.00000
              0.00000    0.00000    0.00112        0.00000    0.00000    0.00112

         MAIN DIRECTIONS OF THE EFG   1.0000  0.7852  0.0000
                                     -0.7852  1.0000  0.0000
                                      0.0000  0.0000  1.0000
:ANG001:  ANGLE WITH OLD X-AXIS =        38.1

:ETA001:                         ASYMM. ETA =     0.68339


       ATOMNUMBER=  2 O          VCOUL-ZERO = -0.68564E-01
:EFG002:                        EFG         =     2.56839   *10**21  V / m**2
                               V20  TOT/SRF=     0.02140     0.02276
                               V22  TOT/SRF=     0.51244     0.58276
                               V22M TOT/SRF=    -1.12875    -1.28913
                               V21  TOT/SRF=    -1.39405    -1.58804
                               V21M TOT/SRF=     1.23260     1.39969

              0.50008   -1.12875   -1.39405        2.56839    0.00000    0.00000
             -1.12875   -0.52480    1.23260        0.00000   -1.05539    0.00000
             -1.39405    1.23260    0.02471        0.00000    0.00000   -1.51300

         MAIN DIRECTIONS OF THE EFG   1.0000  1.0000  0.0151
                                     -0.7229  0.5275  1.0000
                                     -0.8983  0.6887 -0.7879
:ANG002:  ANGLE WITH OLD X-AXIS =        45.0

:ETA002:                         ASYMM. ETA =     0.17817


     HELLMANN-FEYNMAN-FORCE IN mRy/a.u. = |F|  Fx       Fy             Fz
:FHF001:   1.ATOM      2.250411078182      0.000000000000      0.000000000000     -2.250411078182

     HELLMANN-FEYNMAN-FORCE IN mRy/a.u. = |F|  Fx       Fy             Fz
:FHF002:   2.ATOM   1068.368161046105   -824.624438282725   -424.709595265441   -530.119630850812

:FIT001: LUSE= 13 SIGMA OF V-XC FIT FOR ATOM  1  0.7464337E-02
:FIT001: LUSE= 13 SIGMA OF V-XC FIT FOR ATOM  1  0.7464337E-02
:FIT002: LUSE= 13 SIGMA OF V-XC FIT FOR ATOM  2  0.1307565E-02
:FIT002: LUSE= 13 SIGMA OF V-XC FIT FOR ATOM  2  0.1307565E-02
:DEN  : DENSITY INTEGRAL  =         -1215.00617191   (Ry)
       ELS_POTENTIAL_AT Z=0 and Z=0.5:   0.04440  -0.08827
       ELS_POTENTIAL_AT Y=0 and Y=0.5:   0.00000   0.00000
:VZERO:v0,v0c,v0x  -0.69456   0.04440  -0.73896 v5,v5c,v5x  -0.76539  -0.08827  -0.67712
:VZERY:v0,v0c,v0x  -0.70702   0.00000  -0.70702 v5,v5c,v5x  -0.70702   0.00000  -0.70702
:VZERX:v0,v0c,v0x  -0.13489   0.26892  -0.40381 v5,v5c,v5x  -2.54917  -1.63658  -0.91259
:LMAX-WF:   10   Non-Spherical LMAX:   4

          ATOMIC SPHERE DEPENDENT PARAMETERS FOR ATOM  Si        
:e__0001: OVERALL ENERGY PARAMETER IS    0.1000
          OVERALL BASIS SET ON ATOM IS LAPW
:E0_0001: E( 0)=    0.1000
             APW+lo
:E1_0001: E( 1)=    0.1000
             APW+lo

          ATOMIC SPHERE DEPENDENT PARAMETERS FOR ATOM  O         
:e__0002: OVERALL ENERGY PARAMETER IS    0.1000
          OVERALL BASIS SET ON ATOM IS LAPW
:E0_0002: E( 0)=    0.5000
             APW+lo
:E0_0002: E( 0)=   -1.2871   E(BOTTOM)=   -2.574   E(TOP)=    0.000  1  2   225
             LOCAL ORBITAL
:E1_0002: E( 1)=    0.1000
             APW+lo

       K=   0.00000   0.00000   0.00000            1
:RKM  : MATRIX SIZE  1625LOs:  42  RKM= 6.97  WEIGHT= 1.00  PGR:    
       EIGENVALUES ARE:
:EIG00001:      -1.5136529   -1.4195450   -1.4195450   -1.3808753   -1.3796017
:EIG00006:      -1.3796016   -0.6564539   -0.6564538   -0.4765824   -0.4722818
:EIG00011:      -0.4601649   -0.4601649   -0.2869958   -0.2869958   -0.2750308
:EIG00016:      -0.2581964   -0.2094993   -0.2094993   -0.2070955   -0.1745465
:EIG00021:      -0.1745465   -0.1563808   -0.1322260   -0.1322260    0.4593829
:EIG00026:       0.7312125    0.7312125    0.7476935    0.7476935    0.8552112
:EIG00031:       0.8603598    0.9275209    0.9417178    0.9417178    0.9640642
:EIG00036:       0.9640642    1.0413963    1.1319980    1.1428522    1.1428522
:EIG00041:       1.1572921    1.1572921    1.2724592    1.2724592    1.3651920
:EIG00046:       1.4123115    1.4123115    1.5271930    1.5271930    1.6082143
 
:EIG00051:       1.6179343    1.6179343    1.6848558
       ********************************************************

:KPT   :      NUMBER OF K-POINTS:    50
:LMAX-WF:   10   Non-Spherical LMAX:   4

          ATOMIC SPHERE DEPENDENT PARAMETERS FOR ATOM  Si        
:e__0001: OVERALL ENERGY PARAMETER IS    0.1000
          OVERALL BASIS SET ON ATOM IS LAPW
:E0_0001: E( 0)=    0.1000
             APW+lo
:E1_0001: E( 1)=    0.1000
             APW+lo

          ATOMIC SPHERE DEPENDENT PARAMETERS FOR ATOM  O         
:e__0002: OVERALL ENERGY PARAMETER IS    0.1000
          OVERALL BASIS SET ON ATOM IS LAPW
:E0_0002: E( 0)=    0.5000
             APW+lo
:E0_0002: E( 0)=   -1.2871   E(BOTTOM)=   -2.574   E(TOP)=    0.000  1  2   225
             LOCAL ORBITAL
:E1_0002: E( 1)=    0.1000
             APW+lo

       K=   0.00000   0.00000   0.00000            1
:RKM  : MATRIX SIZE  1625LOs:  42  RKM= 6.97  WEIGHT= 1.00  PGR:    
       EIGENVALUES ARE:
:EIG00001:      -1.5136529   -1.4195450   -1.4195450   -1.3808753   -1.3796017
:EIG00006:      -1.3796016   -0.6564539   -0.6564538   -0.4765824   -0.4722818
:EIG00011:      -0.4601649   -0.4601649   -0.2869958   -0.2869958   -0.2750308
:EIG00016:      -0.2581964   -0.2094993   -0.2094993   -0.2070955   -0.1745465
:EIG00021:      -0.1745465   -0.1563808   -0.1322260   -0.1322260    0.4593829
:EIG00026:       0.7312125    0.7312125    0.7476935    0.7476935    0.8552112
:EIG00031:       0.8603598    0.9275209    0.9417178    0.9417178    0.9640642
:EIG00036:       0.9640642    1.0413963    1.1319980    1.1428522    1.1428522
:EIG00041:       1.1572921    1.1572921    1.2724592    1.2724592    1.3651920
:EIG00046:       1.4123115    1.4123115    1.5271930    1.5271930    1.6082143
 
:EIG00051:       1.6179343    1.6179343    1.6848558
       ********************************************************

:KPT   :      NUMBER OF K-POINTS:    50
       Insulator, EF-inconsistency corrected
:GAP (global)   :  0.576760 Ry =     7.847 eV (accurate value if proper k-mesh)
:GAP (this spin):  0.576760 Ry =     7.847 eV (accurate value if proper k-mesh)
         Bandranges (emin - emax) and occupancy:
:BAN00014:  14   -0.300476   -0.271516  1.00000000
:BAN00015:  15   -0.278624   -0.259987  1.00000000
:BAN00016:  16   -0.260881   -0.234159  1.00000000
:BAN00017:  17   -0.242520   -0.209499  1.00000000
:BAN00018:  18   -0.227170   -0.205954  1.00000000
:BAN00019:  19   -0.225314   -0.176046  1.00000000
:BAN00020:  20   -0.205963   -0.174547  1.00000000
:BAN00021:  21   -0.187026   -0.166595  1.00000000
:BAN00022:  22   -0.166943   -0.129484  1.00000000
:BAN00023:  23   -0.151816   -0.124746  1.00000000
:BAN00024:  24   -0.142446   -0.117377  1.00000000
:BAN00025:  25    0.459383    0.664493  0.00000000
:BAN00026:  26    0.584743    0.731212  0.00000000
:BAN00027:  27    0.707837    0.753368  0.00000000
:BAN00028:  28    0.741704    0.784257  0.00000000
:BAN00029:  29    0.747694    0.810147  0.00000000
        Energy to separate low and high energystates:   -0.77384


:NOE  : NUMBER OF ELECTRONS          =   48.000

:FER  : F E R M I - ENERGY(TETRAH.M.)=  -0.1173769536
:GMA  : POTENTIAL AND CHARGE CUT-OFF  12.00 Ry**.5

:POS001: ATOM   -1 X,Y,Z = 0.46913 0.46913 0.50000  MULT= 3  ZZ= 14.000  Si        

       LMMAX 25
       LM=   0 0  1 0  2 0  2 2 -2 2  3 0  3 2 -3 2  4 0  4 2 -4 2  4 4 -4 4  5 0  5 2 -5 2  5 4
        -5 4  6 0  6 2 -6 2  6 4 -6 4  6 6 -6 6

:CHA001: TOTAL VALENCE CHARGE INSIDE SPHERE   1 =   0.2385    (RMT=  1.4000 )
:PCS001: PARTIAL CHARGES SPHERE =  1 S,P,D,F,PX,PY,PZ,D-Z2,D-X2Y2,D-XY,D-XZ,D-YZ 
:QTL001: 0.0831 0.1066 0.0440 0.0041 0.0359 0.0361 0.0346 0.0049 0.0068 0.0098 0.0114 0.0111
        Q-s-low E-s-low   Q-p-low E-p-low   Q-d-low E-d-low   Q-f-low E-f-low
:EPL001:  0.0218 -1.4633    0.0203 -1.3969    0.0066 -1.3969    0.0008 -1.4354
        Q-s-hi  E-s-hi    Q-p-hi  E-p-hi    Q-d-hi  E-d-hi    Q-f-hi  E-f-hi 
:EPH001:  0.0613 -0.5963    0.0863 -0.4488    0.0374 -0.3203    0.0032 -0.3047

                      QXX         QXY         QYY         QZZ       UP TO R
:VZZ001:            -0.11059     0.09665    -0.18337     0.29396       1.400

:POS002: ATOM   -2 X,Y,Z = 0.14451 0.41337 0.61807  MULT= 6  ZZ=  8.000  O         

       LMMAX 49

:CHA002: TOTAL VALENCE CHARGE INSIDE SPHERE   2 =   2.9317    (RMT=  1.6200 )
:PCS002: PARTIAL CHARGES SPHERE =  2 S,P,D,F,PX,PY,PZ,D-Z2,D-X2Y2,D-XY,D-XZ,D-YZ 
:QTL002: 0.8146 2.1091 0.0060 0.0019 0.6985 0.7081 0.7025 0.0009 0.0013 0.0011 0.0013 0.0013
        Q-s-low E-s-low   Q-p-low E-p-low   Q-d-low E-d-low   Q-f-low E-f-low
:EPL002:  0.7866 -1.4149    0.0091 -1.4242    0.0018 -1.4238    0.0002 -1.4176
        Q-s-hi  E-s-hi    Q-p-hi  E-p-hi    Q-d-hi  E-d-hi    Q-f-hi  E-f-hi 
:EPH002:  0.0280 -0.3737    2.1000 -0.3036    0.0042 -0.3886    0.0017 -0.3688

                      QXX         QXY         QYY         QZZ       UP TO R
:VZZ002:             0.60779    -1.34567    -0.66923     0.06144       1.620

:CHA  : TOTAL VALENCE CHARGE INSIDE UNIT CELL =      24.000000

:SUM  : SUM OF EIGENVALUES =         -14.193591380

       Insulator, EF-inconsistency corrected
:GAP (global)   :  0.576760 Ry =     7.847 eV (accurate value if proper k-mesh)
:GAP (this spin):  0.576760 Ry =     7.847 eV (accurate value if proper k-mesh)
         Bandranges (emin - emax) and occupancy:
:BAN00014:  14   -0.300476   -0.271516  1.00000000
:BAN00015:  15   -0.278624   -0.259987  1.00000000
:BAN00016:  16   -0.260881   -0.234159  1.00000000
:BAN00017:  17   -0.242520   -0.209499  1.00000000
:BAN00018:  18   -0.227170   -0.205954  1.00000000
:BAN00019:  19   -0.225314   -0.176046  1.00000000
:BAN00020:  20   -0.205963   -0.174547  1.00000000
:BAN00021:  21   -0.187026   -0.166595  1.00000000
:BAN00022:  22   -0.166943   -0.129484  1.00000000
:BAN00023:  23   -0.151816   -0.124746  1.00000000
:BAN00024:  24   -0.142446   -0.117377  1.00000000
:BAN00025:  25    0.459383    0.664493  0.00000000
:BAN00026:  26    0.584743    0.731212  0.00000000
:BAN00027:  27    0.707837    0.753368  0.00000000
:BAN00028:  28    0.741704    0.784257  0.00000000
:BAN00029:  29    0.747694    0.810147  0.00000000
        Energy to separate low and high energystates:   -0.77384


:NOE  : NUMBER OF ELECTRONS          =   48.000

:FER  : F E R M I - ENERGY(TETRAH.M.)=  -0.1173769536
:GMA  : POTENTIAL AND CHARGE CUT-OFF  12.00 Ry**.5

:POS001: ATOM   -1 X,Y,Z = 0.46913 0.46913 0.50000  MULT= 3  ZZ= 14.000  Si        

       LMMAX 25
       LM=   0 0  1 0  2 0  2 2 -2 2  3 0  3 2 -3 2  4 0  4 2 -4 2  4 4 -4 4  5 0  5 2 -5 2  5 4
        -5 4  6 0  6 2 -6 2  6 4 -6 4  6 6 -6 6

:CHA001: TOTAL VALENCE CHARGE INSIDE SPHERE   1 =   0.2385    (RMT=  1.4000 )
:PCS001: PARTIAL CHARGES SPHERE =  1 S,P,D,F,PX,PY,PZ,D-Z2,D-X2Y2,D-XY,D-XZ,D-YZ 
:QTL001: 0.0831 0.1066 0.0440 0.0041 0.0359 0.0361 0.0346 0.0049 0.0068 0.0098 0.0114 0.0111
        Q-s-low E-s-low   Q-p-low E-p-low   Q-d-low E-d-low   Q-f-low E-f-low
:EPL001:  0.0218 -1.4633    0.0203 -1.3969    0.0066 -1.3969    0.0008 -1.4354
        Q-s-hi  E-s-hi    Q-p-hi  E-p-hi    Q-d-hi  E-d-hi    Q-f-hi  E-f-hi 
:EPH001:  0.0613 -0.5963    0.0863 -0.4488    0.0374 -0.3203    0.0032 -0.3047

                      QXX         QXY         QYY         QZZ       UP TO R
:VZZ001:            -0.11059     0.09665    -0.18337     0.29396       1.400

:POS002: ATOM   -2 X,Y,Z = 0.14451 0.41337 0.61807  MULT= 6  ZZ=  8.000  O         

       LMMAX 49

:CHA002: TOTAL VALENCE CHARGE INSIDE SPHERE   2 =   2.9317    (RMT=  1.6200 )
:PCS002: PARTIAL CHARGES SPHERE =  2 S,P,D,F,PX,PY,PZ,D-Z2,D-X2Y2,D-XY,D-XZ,D-YZ 
:QTL002: 0.8146 2.1091 0.0060 0.0019 0.6985 0.7081 0.7025 0.0009 0.0013 0.0011 0.0013 0.0013
        Q-s-low E-s-low   Q-p-low E-p-low   Q-d-low E-d-low   Q-f-low E-f-low
:EPL002:  0.7866 -1.4149    0.0091 -1.4242    0.0018 -1.4238    0.0002 -1.4176
        Q-s-hi  E-s-hi    Q-p-hi  E-p-hi    Q-d-hi  E-d-hi    Q-f-hi  E-f-hi 
:EPH002:  0.0280 -0.3737    2.1000 -0.3036    0.0042 -0.3886    0.0017 -0.3688

                      QXX         QXY         QYY         QZZ       UP TO R
:VZZ002:             0.60779    -1.34567    -0.66923     0.06144       1.620

:CHA  : TOTAL VALENCE CHARGE INSIDE UNIT CELL =      24.000000

:SUM  : SUM OF EIGENVALUES =         -14.193591380


        1.ATOM      Si                    4 CORE STATES
       CORE-FORCE in mRy/a.u. = |F|      Fx             Fy             Fz
:FCO001:   1.ATOM      0.621665398274      0.000000000000      0.000000000000     -0.621665398274

:1S 001: 1S                -130.530192419 Ry
:2S 001: 2S                  -9.543946936 Ry
:2PP001: 2P*                 -6.345985091 Ry
:2P 001: 2P                  -6.298603455 Ry

        2.ATOM      O                     1 CORE STATES
       CORE-FORCE in mRy/a.u. = |F|      Fx             Fy             Fz
:FCO002:   2.ATOM    280.249117278230    216.244140794382    111.435144451974    139.141107830483

:1S 002: 1S                 -37.279257099 Ry

        1.ATOM      Si                    4 CORE STATES
       CORE-FORCE in mRy/a.u. = |F|      Fx             Fy             Fz
:FCO001:   1.ATOM      0.621665398316      0.000000000000      0.000000000000     -0.621665398316

:1S 001: 1S                -130.530192419 Ry
:2S 001: 2S                  -9.543946936 Ry
:2PP001: 2P*                 -6.345985091 Ry
:2P 001: 2P                  -6.298603455 Ry

        2.ATOM      O                     1 CORE STATES
       CORE-FORCE in mRy/a.u. = |F|      Fx             Fy             Fz
:FCO002:   2.ATOM    280.249117278596    216.244140794584    111.435144452236    139.141107830697

:1S 002: 1S                 -37.279257099 Ry
:CINT001 Core Integral Atom   1 Up    4.960721 Dn   4.960721 Total   9.921442
:CINT002 Core Integral Atom   2 Up    1.001939 Dn   1.001939 Total   2.003879

       DENSITY AT NUCLEUS
        JATOM        VALENCE       SEMI-CORE          CORE           TOTAL
:RTO001:   1        4.944464     1886.027682        0.000000     1890.972146
:RTO002:   2       15.585692      303.956139        0.000000      319.541831

       HYPERFINE FIELDS FOR THOMSON RADIUS
:HFF001:           -0.000          -0.000           0.000          -0.000 (KGAUSS)
:HFF002:           -0.000           0.000           0.000           0.000 (KGAUSS)
     
       CHARGES OF NEW CHARGE DENSITY
:NTO   : INTERSTITIAL     UP =     5.800693 DN =     5.800693 TOT =    11.601386
:NPC   : PW Pseudocharge  UP =    13.520777 DN =    13.520777 TOT =    27.041555
:NTO001: CHARGE SPHERE  1 UP =     5.199239 DN =     5.199239 TOT =    10.398477
:NTO002: CHARGE SPHERE  2 UP =     3.933647 DN =     3.933647 TOT =     7.867295

:NEC01: NUCLEAR AND ELECTRONIC CHARGE     90.00000    90.00059
     
       CHARGES OF OLD CHARGE DENSITY
:OTO   : INTERSTITIAL     UP =     7.779583 DN =     7.779583 TOT =    15.559166
:OPC   : PW Pseudocharge  UP =    12.930091 DN =    12.930091 TOT =    25.860182
:OTO001: CHARGE SPHERE  1 UP =     5.301786 DN =     5.301786 TOT =    10.603573
:OTO002: CHARGE SPHERE  2 UP =     3.552510 DN =     3.552510 TOT =     7.105019

:NEC02: NUCLEAR AND ELECTRONIC CHARGE     90.00000    90.00000
     
       CONVERGENCE TEST
:DTO001: DIFFERENCE SPHERE  1 UP =  0.1465673 DN =  0.1465673 TOT =  0.2931345
:DTO002: DIFFERENCE SPHERE  2 UP =  0.4477562 DN =  0.4477562 TOT =  0.8955124

:DIS  :  CHARGE DISTANCE       ( 0.4477562 for atom    2 spin 2)      1.3894395
 PW Mixed is         2149
 
******************************************************
* MULTISECANT MIXING VER9 RELEASE 10.4.0              *
* Slow Mode, cautious                                *
* Fixed density scale                                *
* Regularization       1.000E-04                     *
* Step Trust Radius    0.75000                       *
* Trust Upper Limit    2.000E+00                     *
* Max Number of Memory Steps   12                    *
******************************************************
 
:PWTMP   6.1772E+02  5.7600E+02  7.5905E+02
:PLANE:  PW TOTAL     11.5371 DISTAN   1.43E+00  1.24E+01 %
:CHARG:  CLM/ATOM     57.2038 DISTAN   8.11E-01  1.42E+00 %
INFO: Reducing dbase  2.00000E-02 1.38944E+00 1.69672E-02
 
Step History
        DMIX         DMIXT        Red     Pred      Trust     Lambda    MagRel    MagAbs     Beta
  1   3.5000E-02   3.5000E-02 -1.00E+00  1.00E+00 -1.00E+01  1.00E+00  3.50E-02  3.50E-02  1.00E+00
  2   3.0202E-02   3.0202E-02 -1.00E+00  1.00E+00 -1.00E+01  1.00E+00  3.02E-02  7.27E-02  1.00E+00
:JACOBIANS    4.920E-01   9.928E-04
  
:TRUST:  Step 4.47E-02  Charge 7.50E-02 (e) CTO  2.69E-01 (e) PW  3.77E-01 (e)
:DIRM :  MEMORY  1/12 SCALE   1.000
:MIX  :   PRATT  REGULARIZATION:  1.00E-04 GREED: 0.04466  Expand 1.48  0.0447                
     
       CHARGES OF MIXED CHARGE DENSITY
:CTO   : INTERSTITIAL     UP =     7.754343 DN =     7.754343 TOT =    15.508687
:CPC   : PW Pseudocharge  UP =    13.366749 DN =    13.366749 TOT =    26.733498
:CTO001: CHARGE SPHERE  1 UP =     5.300477 DN =     5.300477 TOT =    10.600954
:CTO002: CHARGE SPHERE  2 UP =     3.557371 DN =     3.557371 TOT =     7.114742

       SPIN MAGNETIC MOMENTS OF MIXED CHARGE DENSITY
:MMINT:  MAGNETIC MOMENT IN INTERSTITIAL  =   -0.00000
:MMI001: MAGNETIC MOMENT IN SPHERE   1    =   -0.00000
:MMI002: MAGNETIC MOMENT IN SPHERE   2    =    0.00000
:MMTOT:  SPIN MAGNETIC MOMENT IN CELL     =   -0.00000

:NEC03: NUCLEAR AND ELECTRONIC CHARGE     90.00000    90.00000

PW CHANGE     H    K    L             Current                    Change               Residue
:PUP001:      0    0    0  2.78255635E-02 0.00000000E+00  5.420E-04  0.000E+00 -1.830E-03  0.000E+00
:PUP002:      0    0   -1 -3.92382134E-10 0.00000000E+00  4.546E-12  0.000E+00  3.715E-10  0.000E+00
:PUP003:     -1    0    0 -1.96977906E-02 0.00000000E+00 -8.475E-05  0.000E+00  1.082E-03  0.000E+00
:PUP004:     -1    0   -1  2.23183529E-02-3.86565202E-02  2.851E-04 -4.937E-04  4.570E-05 -7.916E-05
:PUP005:     -1    0    1  1.33603570E-02 2.31408165E-02  6.937E-05  1.202E-04 -1.348E-04 -2.335E-04
:PUP006:      0    0   -2 -1.89086301E-10 0.00000000E+00 -6.439E-12  0.000E+00  1.419E-10  0.000E+00
:PUP007:     -2    1    0 -7.98504634E-03-1.18432329E-02 -1.979E-04 -9.634E-04 -3.528E-04 -1.667E-03
:PUP008:     -1   -1    0 -7.98504634E-03 1.18432329E-02 -1.979E-04  9.634E-04 -3.528E-04  1.667E-03
:PUP009:     -1    0   -2  1.90798977E-02 3.30473539E-02  1.696E-03  2.937E-03  2.808E-03  4.863E-03
:PUP010:     -1    0    2  4.99299050E-04-8.64811364E-04  6.497E-04 -1.125E-03  7.874E-04 -1.364E-03
:PUP011:     -2    1   -1 -2.33593973E-02-1.28631126E-02 -1.978E-03 -1.764E-03 -3.590E-03 -2.396E-03
:PUP012:     -1   -1   -1  2.28194807E-02 1.37982757E-02  2.517E-03  8.305E-04  3.870E-03  1.911E-03
  
:PDN001:      0    0    0  2.78255635E-02 0.00000000E+00  5.420E-04  0.000E+00 -1.830E-03  0.000E+00
:PDN002:      0    0   -1 -3.92382134E-10 0.00000000E+00  4.546E-12  0.000E+00  3.715E-10  0.000E+00
:PDN003:     -1    0    0 -1.96977906E-02 0.00000000E+00 -8.475E-05  0.000E+00  1.082E-03  0.000E+00
:PDN004:     -1    0   -1  2.23183529E-02-3.86565202E-02  2.851E-04 -4.937E-04  4.570E-05 -7.916E-05
:PDN005:     -1    0    1  1.33603570E-02 2.31408165E-02  6.937E-05  1.202E-04 -1.348E-04 -2.335E-04
:PDN006:      0    0   -2 -1.89086301E-10 0.00000000E+00 -6.439E-12  0.000E+00  1.419E-10  0.000E+00
:PDN007:     -2    1    0 -7.98504634E-03-1.18432329E-02 -1.979E-04 -9.634E-04 -3.528E-04 -1.667E-03
:PDN008:     -1   -1    0 -7.98504634E-03 1.18432329E-02 -1.979E-04  9.634E-04 -3.528E-04  1.667E-03
:PDN009:     -1    0   -2  1.90798977E-02 3.30473539E-02  1.696E-03  2.937E-03  2.808E-03  4.863E-03
:PDN010:     -1    0    2  4.99299050E-04-8.64811364E-04  6.497E-04 -1.125E-03  7.874E-04 -1.364E-03
:PDN011:     -2    1   -1 -2.33593973E-02-1.28631126E-02 -1.978E-03 -1.764E-03 -3.590E-03 -2.396E-03
:PDN012:     -1   -1   -1  2.28194807E-02 1.37982757E-02  2.517E-03  8.305E-04  3.870E-03  1.911E-03

:ENE  : ********** TOTAL ENERGY IN Ry =        -2644.84842799

       TOTAL FORCE IN mRy/a.u. = |F|     Fx             Fy             Fz     with/without FOR in case.in2
:FOR001:   1.ATOM          2.872          0.000          0.000         -2.872 partial forces
:FOR002:   2.ATOM        788.119       -608.380       -313.274       -390.979 partial forces
       TOTAL FORCE WITH RESPECT TO GLOBAL CARTESIAN COORDINATES:
:FCA001:   1.ATOM                        -2.487         -1.436          0.000 partial forces
:FCA002:   2.ATOM                      -608.380       -313.274       -390.979 partial forces
       TOTAL FORCE WITH RESPECT TO THE GLOBAL COORDINATE SYSTEM:
:FGL001:   1.ATOM                -2.872076476    -2.872076476     0.000000000 partial forces
:FGL002:   2.ATOM              -702.497057049  -664.522979338  -390.978523020 partial forces
 Flat Integration
 New Mode for Coulomb Integral
 Consistent 3/8+Simpson combinations
 Extension of core to zero
 LDM version in phi
 Fifth-order quadrature in outwin


            ---------
:ITE003:  3. ITERATION
            ---------

:NATO :    2 INDEPENDENT AND    9 TOTAL ATOMS IN UNITCELL
       SUBSTANCE: SiO2 for tests                                              

       LATTICE                      = H   
:POT  : POTENTIAL OPTION EX_PBE EC_PBE VX_PBE VC_PBE
:LAT  : LATTICE CONSTANTS=  9.26193  9.26193 10.21737
:VOL  : UNIT CELL VOLUME =     759.05354
       MODE OF CALCULATION IS       = RELA
       SPINPOLARIZED CALCULATION
:IFFT  : FFT-parameters:   72   72   80 Factor: 2.00


   CONVERGENCE PARAMETER FOR PSEUDOCHARGE: NCON=  9
   MAXIMAL VALUE OF RMT(JATOM)*ABSK(NKK) : RK  =19.43469


:VKCOUL :  VK-COUL convergence: 0.341E-05
       ATOMNUMBER=  1 Si         VCOUL-ZERO = -0.14331E+01
:EFG001:                        EFG         =    -0.00833   *10**21  V / m**2
                               V20  TOT/SRF=     0.00672    -0.01553
                               V22  TOT/SRF=     0.00204     0.00267
                               V22M TOT/SRF=    -0.00395    -0.01936
                               V21  TOT/SRF=     0.00000     0.00000
                               V21M TOT/SRF=     0.00000     0.00000

             -0.00183   -0.00395    0.00000        0.00057    0.00000    0.00000
             -0.00395   -0.00592    0.00000        0.00000   -0.00833    0.00000
              0.00000    0.00000    0.00776        0.00000    0.00000    0.00776

         MAIN DIRECTIONS OF THE EFG   1.0000  0.6087  0.0000
                                     -0.6087  1.0000  0.0000
                                      0.0000  0.0000  1.0000
:ANG001:  ANGLE WITH OLD X-AXIS =        31.3

:ETA001:                         ASYMM. ETA =     0.86279


       ATOMNUMBER=  2 O          VCOUL-ZERO = -0.63912E-01
:EFG002:                        EFG         =     2.65825   *10**21  V / m**2
                               V20  TOT/SRF=     0.02284     0.02285
                               V22  TOT/SRF=     0.53065     0.58323
                               V22M TOT/SRF=    -1.16721    -1.28981
                               V21  TOT/SRF=    -1.44261    -1.58881
                               V21M TOT/SRF=     1.27704     1.40028

              0.51746   -1.16721   -1.44261        2.65825    0.00000    0.00000
             -1.16721   -0.54383    1.27704        0.00000   -1.09094    0.00000
             -1.44261    1.27704    0.02637        0.00000    0.00000   -1.56731

         MAIN DIRECTIONS OF THE EFG   1.0000  1.0000  0.0144
                                     -0.7230  0.5278  1.0000
                                     -0.8990  0.6879 -0.7883
:ANG002:  ANGLE WITH OLD X-AXIS =        45.0

:ETA002:                         ASYMM. ETA =     0.17920


     HELLMANN-FEYNMAN-FORCE IN mRy/a.u. = |F|  Fx       Fy             Fz
:FHF001:   1.ATOM      2.868953195583      0.000000000000      0.000000000000     -2.868953195583

     HELLMANN-FEYNMAN-FORCE IN mRy/a.u. = |F|  Fx       Fy             Fz
:FHF002:   2.ATOM   1063.222064149413   -820.446421077622   -423.364997740488   -527.324289714836

:FIT001: LUSE= 13 SIGMA OF V-XC FIT FOR ATOM  1  0.7614464E-02
:FIT001: LUSE= 13 SIGMA OF V-XC FIT FOR ATOM  1  0.7614464E-02
:FIT002: LUSE= 13 SIGMA OF V-XC FIT FOR ATOM  2  0.1294232E-02
:FIT002: LUSE= 13 SIGMA OF V-XC FIT FOR ATOM  2  0.1294232E-02
:DEN  : DENSITY INTEGRAL  =         -1215.53557342   (Ry)
       ELS_POTENTIAL_AT Z=0 and Z=0.5:   0.04250  -0.08418
       ELS_POTENTIAL_AT Y=0 and Y=0.5:   0.00000   0.00000
:VZERO:v0,v0c,v0x  -0.69913   0.04250  -0.74162 v5,v5c,v5x  -0.75140  -0.08418  -0.66723
:VZERY:v0,v0c,v0x  -0.70582   0.00000  -0.70582 v5,v5c,v5x  -0.70582   0.00000  -0.70582
:VZERX:v0,v0c,v0x  -0.10291   0.27984  -0.38275 v5,v5c,v5x  -2.51048  -1.62698  -0.88350
:LMAX-WF:   10   Non-Spherical LMAX:   4

          ATOMIC SPHERE DEPENDENT PARAMETERS FOR ATOM  Si        
:e__0001: OVERALL ENERGY PARAMETER IS   -0.1000
          OVERALL BASIS SET ON ATOM IS LAPW
:E0_0001: E( 0)=   -0.1000
             APW+lo
:E1_0001: E( 1)=   -0.1000
             APW+lo

          ATOMIC SPHERE DEPENDENT PARAMETERS FOR ATOM  O         
:e__0002: OVERALL ENERGY PARAMETER IS   -0.1000
          OVERALL BASIS SET ON ATOM IS LAPW
:E0_0002: E( 0)=   -0.1000
             APW+lo
:E0_0002: E( 0)=   -1.2772   E(BOTTOM)=   -2.566   E(TOP)=    0.012  1  2   232
             LOCAL ORBITAL
:E1_0002: E( 1)=   -0.1000
             APW+lo

       K=   0.00000   0.00000   0.00000            1
:RKM  : MATRIX SIZE  1625LOs:  42  RKM= 6.97  WEIGHT= 1.00  PGR:    
       EIGENVALUES ARE:
:EIG00001:      -1.5058170   -1.4110870   -1.4110870   -1.3721029   -1.3707950
:EIG00006:      -1.3707950   -0.6498266   -0.6498266   -0.4687278   -0.4646581
:EIG00011:      -0.4524320   -0.4524320   -0.2793417   -0.2793417   -0.2671530
:EIG00016:      -0.2502770   -0.2009276   -0.2009276   -0.1985742   -0.1658460
:EIG00021:      -0.1658460   -0.1475597   -0.1232416   -0.1232416    0.4633398
:EIG00026:       0.7342615    0.7342615    0.7512566    0.7512566    0.8601240
:EIG00031:       0.8631547    0.9314149    0.9465731    0.9465731    0.9694160
:EIG00036:       0.9694160    1.0461913    1.1362449    1.1464030    1.1464030
:EIG00041:       1.1604858    1.1604858    1.2759591    1.2759591    1.3687228
:EIG00046:       1.4162871    1.4162871    1.5304492    1.5304492
 
       ********************************************************

:KPT   :      NUMBER OF K-POINTS:    50
:LMAX-WF:   10   Non-Spherical LMAX:   4

          ATOMIC SPHERE DEPENDENT PARAMETERS FOR ATOM  Si        
:e__0001: OVERALL ENERGY PARAMETER IS   -0.1000
          OVERALL BASIS SET ON ATOM IS LAPW
:E0_0001: E( 0)=   -0.1000
             APW+lo
:E1_0001: E( 1)=   -0.1000
             APW+lo

          ATOMIC SPHERE DEPENDENT PARAMETERS FOR ATOM  O         
:e__0002: OVERALL ENERGY PARAMETER IS   -0.1000
          OVERALL BASIS SET ON ATOM IS LAPW
:E0_0002: E( 0)=   -0.1000
             APW+lo
:E0_0002: E( 0)=   -1.2772   E(BOTTOM)=   -2.566   E(TOP)=    0.012  1  2   232
             LOCAL ORBITAL
:E1_0002: E( 1)=   -0.1000
             APW+lo

       K=   0.00000   0.00000   0.00000            1
:RKM  : MATRIX SIZE  1625LOs:  42  RKM= 6.97  WEIGHT= 1.00  PGR:    
       EIGENVALUES ARE:
:EIG00001:      -1.5058170   -1.4110870   -1.4110870   -1.3721029   -1.3707950
:EIG00006:      -1.3707950   -0.6498266   -0.6498266   -0.4687278   -0.4646581
:EIG00011:      -0.4524320   -0.4524320   -0.2793417   -0.2793417   -0.2671530
:EIG00016:      -0.2502770   -0.2009276   -0.2009276   -0.1985742   -0.1658460
:EIG00021:      -0.1658460   -0.1475597   -0.1232416   -0.1232416    0.4633398
:EIG00026:       0.7342615    0.7342615    0.7512566    0.7512566    0.8601240
:EIG00031:       0.8631547    0.9314149    0.9465731    0.9465731    0.9694160
:EIG00036:       0.9694160    1.0461913    1.1362449    1.1464030    1.1464030
:EIG00041:       1.1604858    1.1604858    1.2759591    1.2759591    1.3687228
:EIG00046:       1.4162871    1.4162871    1.5304492    1.5304492
 
       ********************************************************

:KPT   :      NUMBER OF K-POINTS:    50
       Insulator, EF-inconsistency corrected
:GAP (global)   :  0.571504 Ry =     7.776 eV (accurate value if proper k-mesh)
:GAP (this spin):  0.571504 Ry =     7.776 eV (accurate value if proper k-mesh)
         Bandranges (emin - emax) and occupancy:
:BAN00014:  14   -0.293022   -0.263657  1.00000000
:BAN00015:  15   -0.271008   -0.251931  1.00000000
:BAN00016:  16   -0.252939   -0.225892  1.00000000
:BAN00017:  17   -0.234373   -0.200928  1.00000000
:BAN00018:  18   -0.218904   -0.197492  1.00000000
:BAN00019:  19   -0.217056   -0.167367  1.00000000
:BAN00020:  20   -0.197525   -0.165846  1.00000000
:BAN00021:  21   -0.178429   -0.157852  1.00000000
:BAN00022:  22   -0.158148   -0.120397  1.00000000
:BAN00023:  23   -0.142973   -0.115637  1.00000000
:BAN00024:  24   -0.133515   -0.108164  1.00000000
:BAN00025:  25    0.463340    0.668689  0.00000000
:BAN00026:  26    0.589345    0.734261  0.00000000
:BAN00027:  27    0.712178    0.756780  0.00000000
:BAN00028:  28    0.744476    0.787752  0.00000000
:BAN00029:  29    0.751257    0.813918  0.00000000
        Energy to separate low and high energystates:   -0.76771


:NOE  : NUMBER OF ELECTRONS          =   48.000

:FER  : F E R M I - ENERGY(TETRAH.M.)=  -0.1081642522
:GMA  : POTENTIAL AND CHARGE CUT-OFF  12.00 Ry**.5

:POS001: ATOM   -1 X,Y,Z = 0.46913 0.46913 0.50000  MULT= 3  ZZ= 14.000  Si        

       LMMAX 25
       LM=   0 0  1 0  2 0  2 2 -2 2  3 0  3 2 -3 2  4 0  4 2 -4 2  4 4 -4 4  5 0  5 2 -5 2  5 4
        -5 4  6 0  6 2 -6 2  6 4 -6 4  6 6 -6 6

:CHA001: TOTAL VALENCE CHARGE INSIDE SPHERE   1 =   0.2404    (RMT=  1.4000 )
:PCS001: PARTIAL CHARGES SPHERE =  1 S,P,D,F,PX,PY,PZ,D-Z2,D-X2Y2,D-XY,D-XZ,D-YZ 
:QTL001: 0.0837 0.1075 0.0443 0.0041 0.0362 0.0364 0.0349 0.0049 0.0069 0.0099 0.0115 0.0111
        Q-s-low E-s-low   Q-p-low E-p-low   Q-d-low E-d-low   Q-f-low E-f-low
:EPL001:  0.0220 -1.4551    0.0205 -1.3882    0.0066 -1.3882    0.0008 -1.4271
        Q-s-hi  E-s-hi    Q-p-hi  E-p-hi    Q-d-hi  E-d-hi    Q-f-hi  E-f-hi 
:EPH001:  0.0617 -0.5892    0.0870 -0.4410    0.0376 -0.3115    0.0032 -0.2954

                      QXX         QXY         QYY         QZZ       UP TO R
:VZZ001:            -0.11156     0.09745    -0.18605     0.29761       1.400

:POS002: ATOM   -2 X,Y,Z = 0.14451 0.41337 0.61807  MULT= 6  ZZ=  8.000  O         

       LMMAX 49

:CHA002: TOTAL VALENCE CHARGE INSIDE SPHERE   2 =   2.9252    (RMT=  1.6200 )
:PCS002: PARTIAL CHARGES SPHERE =  2 S,P,D,F,PX,PY,PZ,D-Z2,D-X2Y2,D-XY,D-XZ,D-YZ 
:QTL002: 0.8139 2.1033 0.0060 0.0019 0.6966 0.7061 0.7005 0.0010 0.0014 0.0011 0.0013 0.0013
        Q-s-low E-s-low   Q-p-low E-p-low   Q-d-low E-d-low   Q-f-low E-f-low
:EPL002:  0.7855 -1.4063    0.0091 -1.4157    0.0018 -1.4153    0.0002 -1.4091
        Q-s-hi  E-s-hi    Q-p-hi  E-p-hi    Q-d-hi  E-d-hi    Q-f-hi  E-f-hi 
:EPH002:  0.0283 -0.3664    2.0941 -0.2954    0.0042 -0.3803    0.0017 -0.3607

                      QXX         QXY         QYY         QZZ       UP TO R
:VZZ002:             0.59044    -1.30470    -0.65118     0.06074       1.620

:CHA  : TOTAL VALENCE CHARGE INSIDE UNIT CELL =      24.000000

:SUM  : SUM OF EIGENVALUES =         -13.997494756

       Insulator, EF-inconsistency corrected
:GAP (global)   :  0.571504 Ry =     7.776 eV (accurate value if proper k-mesh)
:GAP (this spin):  0.571504 Ry =     7.776 eV (accurate value if proper k-mesh)
         Bandranges (emin - emax) and occupancy:
:BAN00014:  14   -0.293022   -0.263657  1.00000000
:BAN00015:  15   -0.271008   -0.251931  1.00000000
:BAN00016:  16   -0.252939   -0.225892  1.00000000
:BAN00017:  17   -0.234373   -0.200928  1.00000000
:BAN00018:  18   -0.218904   -0.197492  1.00000000
:BAN00019:  19   -0.217056   -0.167367  1.00000000
:BAN00020:  20   -0.197525   -0.165846  1.00000000
:BAN00021:  21   -0.178429   -0.157852  1.00000000
:BAN00022:  22   -0.158148   -0.120397  1.00000000
:BAN00023:  23   -0.142973   -0.115637  1.00000000
:BAN00024:  24   -0.133515   -0.108164  1.00000000
:BAN00025:  25    0.463340    0.668689  0.00000000
:BAN00026:  26    0.589345    0.734261  0.00000000
:BAN00027:  27    0.712178    0.756780  0.00000000
:BAN00028:  28    0.744476    0.787752  0.00000000
:BAN00029:  29    0.751257    0.813918  0.00000000
        Energy to separate low and high energystates:   -0.76771


:NOE  : NUMBER OF ELECTRONS          =   48.000

:FER  : F E R M I - ENERGY(TETRAH.M.)=  -0.1081642522
:GMA  : POTENTIAL AND CHARGE CUT-OFF  12.00 Ry**.5

:POS001: ATOM   -1 X,Y,Z = 0.46913 0.46913 0.50000  MULT= 3  ZZ= 14.000  Si        

       LMMAX 25
       LM=   0 0  1 0  2 0  2 2 -2 2  3 0  3 2 -3 2  4 0  4 2 -4 2  4 4 -4 4  5 0  5 2 -5 2  5 4
        -5 4  6 0  6 2 -6 2  6 4 -6 4  6 6 -6 6

:CHA001: TOTAL VALENCE CHARGE INSIDE SPHERE   1 =   0.2404    (RMT=  1.4000 )
:PCS001: PARTIAL CHARGES SPHERE =  1 S,P,D,F,PX,PY,PZ,D-Z2,D-X2Y2,D-XY,D-XZ,D-YZ 
:QTL001: 0.0837 0.1075 0.0443 0.0041 0.0362 0.0364 0.0349 0.0049 0.0069 0.0099 0.0115 0.0111
        Q-s-low E-s-low   Q-p-low E-p-low   Q-d-low E-d-low   Q-f-low E-f-low
:EPL001:  0.0220 -1.4551    0.0205 -1.3882    0.0066 -1.3882    0.0008 -1.4271
        Q-s-hi  E-s-hi    Q-p-hi  E-p-hi    Q-d-hi  E-d-hi    Q-f-hi  E-f-hi 
:EPH001:  0.0617 -0.5892    0.0870 -0.4410    0.0376 -0.3115    0.0032 -0.2954

                      QXX         QXY         QYY         QZZ       UP TO R
:VZZ001:            -0.11156     0.09745    -0.18605     0.29761       1.400

:POS002: ATOM   -2 X,Y,Z = 0.14451 0.41337 0.61807  MULT= 6  ZZ=  8.000  O         

       LMMAX 49

:CHA002: TOTAL VALENCE CHARGE INSIDE SPHERE   2 =   2.9252    (RMT=  1.6200 )
:PCS002: PARTIAL CHARGES SPHERE =  2 S,P,D,F,PX,PY,PZ,D-Z2,D-X2Y2,D-XY,D-XZ,D-YZ 
:QTL002: 0.8139 2.1033 0.0060 0.0019 0.6966 0.7061 0.7005 0.0010 0.0014 0.0011 0.0013 0.0013
        Q-s-low E-s-low   Q-p-low E-p-low   Q-d-low E-d-low   Q-f-low E-f-low
:EPL002:  0.7855 -1.4063    0.0091 -1.4157    0.0018 -1.4153    0.0002 -1.4091
        Q-s-hi  E-s-hi    Q-p-hi  E-p-hi    Q-d-hi  E-d-hi    Q-f-hi  E-f-hi 
:EPH002:  0.0283 -0.3664    2.0941 -0.2954    0.0042 -0.3803    0.0017 -0.3607

                      QXX         QXY         QYY         QZZ       UP TO R
:VZZ002:             0.59044    -1.30470    -0.65118     0.06074       1.620

:CHA  : TOTAL VALENCE CHARGE INSIDE UNIT CELL =      24.000000

:SUM  : SUM OF EIGENVALUES =         -13.997494756


        1.ATOM      Si                    4 CORE STATES
       CORE-FORCE in mRy/a.u. = |F|      Fx             Fy             Fz
:FCO001:   1.ATOM      0.169436077673      0.000000000000      0.000000000000     -0.169436077673

:1S 001: 1S                -130.532281215 Ry
:2S 001: 2S                  -9.544712451 Ry
:2PP001: 2P*                 -6.346829216 Ry
:2P 001: 2P                  -6.299441531 Ry

        2.ATOM      O                     1 CORE STATES
       CORE-FORCE in mRy/a.u. = |F|      Fx             Fy             Fz
:FCO002:   2.ATOM    281.741266521943    217.320389287564    112.216110480224    139.848254225714

:1S 002: 1S                 -37.261972774 Ry

        1.ATOM      Si                    4 CORE STATES
       CORE-FORCE in mRy/a.u. = |F|      Fx             Fy             Fz
:FCO001:   1.ATOM      0.169436077671      0.000000000000      0.000000000000     -0.169436077671

:1S 001: 1S                -130.532281215 Ry
:2S 001: 2S                  -9.544712451 Ry
:2PP001: 2P*                 -6.346829216 Ry
:2P 001: 2P                  -6.299441531 Ry

        2.ATOM      O                     1 CORE STATES
       CORE-FORCE in mRy/a.u. = |F|      Fx             Fy             Fz
:FCO002:   2.ATOM    281.741266522430    217.320389287866    112.216110480519    139.848254225990

:1S 002: 1S                 -37.261972774 Ry
:CINT001 Core Integral Atom   1 Up    4.960758 Dn   4.960758 Total   9.921516
:CINT002 Core Integral Atom   2 Up    1.001937 Dn   1.001937 Total   2.003874

       DENSITY AT NUCLEUS
        JATOM        VALENCE       SEMI-CORE          CORE           TOTAL
:RTO001:   1        5.002376     1886.041943        0.000000     1891.044320
:RTO002:   2       15.551268      303.949941        0.000000      319.501209

       HYPERFINE FIELDS FOR THOMSON RADIUS
:HFF001:            0.000           0.000           0.000           0.000 (KGAUSS)
:HFF002:            0.000           0.000           0.000           0.000 (KGAUSS)
     
       CHARGES OF NEW CHARGE DENSITY
:NTO   : INTERSTITIAL     UP =     5.833866 DN =     5.833866 TOT =    11.667731
:NPC   : PW Pseudocharge  UP =    13.522204 DN =    13.522204 TOT =    27.044408
:NTO001: CHARGE SPHERE  1 UP =     5.201128 DN =     5.201128 TOT =    10.402257
:NTO002: CHARGE SPHERE  2 UP =     3.927174 DN =     3.927174 TOT =     7.854347

:NEC01: NUCLEAR AND ELECTRONIC CHARGE     90.00000    90.00059
     
       CHARGES OF OLD CHARGE DENSITY
:OTO   : INTERSTITIAL     UP =     7.754343 DN =     7.754343 TOT =    15.508687
:OPC   : PW Pseudocharge  UP =    13.366749 DN =    13.366749 TOT =    26.733498
:OTO001: CHARGE SPHERE  1 UP =     5.300477 DN =     5.300477 TOT =    10.600954
:OTO002: CHARGE SPHERE  2 UP =     3.557371 DN =     3.557371 TOT =     7.114742

:NEC02: NUCLEAR AND ELECTRONIC CHARGE     90.00000    90.00000
     
       CONVERGENCE TEST
:DTO001: DIFFERENCE SPHERE  1 UP =  0.1413056 DN =  0.1413056 TOT =  0.2826112
:DTO002: DIFFERENCE SPHERE  2 UP =  0.4369860 DN =  0.4369860 TOT =  0.8739721

:DIS  :  CHARGE DISTANCE       ( 0.4369860 for atom    2 spin 2)      1.3537035
 PW Mixed is         2149
 
******************************************************
* MULTISECANT MIXING VER9 RELEASE 10.4.0              *
* Standard Mode with controls                        *
* Fixed density scale                                *
* Regularization       1.000E-04                     *
* Trust Upper Limit    5.000E+00                     *
* Max Number of Memory Steps    8                    *
******************************************************
 
:PWTMP   6.1772E+02  5.7600E+02  7.5905E+02
:PLANE:  PW TOTAL     12.1870 DISTAN   1.29E+00  1.06E+01 %
:CHARG:  CLM/ATOM     57.2034 DISTAN   7.91E-01  1.38E+00 %
INFO: Reducing dbase  2.50000E-02 1.35370E+00 2.14871E-02
 
Step History
        DMIX         DMIXT        Red     Pred      Trust     Lambda    MagRel    MagAbs     Beta
  1   3.5000E-02   3.5000E-02 -1.00E+00  1.00E+00 -1.00E+01  1.00E+00  3.50E-02  3.50E-02  1.00E+00
  2   3.0202E-02   3.0202E-02  7.36E-01  1.00E+00 -1.00E+01  1.00E+00  3.02E-02  7.27E-02  1.00E+00
  3   4.4662E-02   4.4662E-02 -1.00E+00  1.00E+00 -1.00E+01  1.00E+00  4.47E-02  7.92E-02  1.00E+00
:JACOBIANS    7.372E-01   1.531E-03
  
:NORMS:  1/Froebius, Min, Max, Used   0.9880E+00  0.4934E+00  0.9880E+00  0.9880E+00
:INFO :  Number of Memory Steps    2 Skipping    0
:INFO :  SLambda=    0.1220743811  Max    0.1220743811
:PREDicted Charge, CTotal, PW Trust    1.011E-02   5.250E-02   3.247E-01
:PREDicted DMix, Beta, BLim   5.8460E-02  9.7840E-01  1.4078E+00

Eigenvalues, unscaled except for SY+YY
   #     SY Real        SY Imag          SS             YY         SY+YY Real      SY+YY Imag
   1   1.972606E+00   0.000000E+00   1.952203E+00   1.999918E+00   2.240723E+00   0.000000E+00
   2  -1.144953E-15   0.000000E+00  -8.920685E-18   8.175546E-05   8.176000E-05   0.000000E+00
 
:INFO :  Singular value  2.241E+00 Weight  1.000E+00 Projection  1.174E-02
:INFO :  Singular value  8.176E-05 Weight  1.432E-01 Projection  1.056E+01
:RANK :  ACTIVE   1.14/2  =  57.16 % ; YY RANK   1.14/2  =  57.16 %
 
:DLIM :  Beta Active  9.838E-01
:BLIM :  VZERO Control Off
:TRUST:  Step 2.71E-01  Charge 7.50E-02 (e) CTO  2.69E-01 (e) PW  3.77E-01 (e)
:DIRM :  MEMORY  2/8  SCALE   1.000 RED  0.96 PRED  1.00 NEXT  0.98 BETA  0.98
:TRAVE:  Charge 3.60E-02 (e) CTO  1.87E-01 (e) PW  6.56E-02 (e)
:DIRP :  |MSR1|= 3.193E-02 |PRATT|= 6.472E-01 ANGLE=   2.8 DEGREES
:DIRQ :  |MSR1|= 7.493E-02 |PRATT|= 1.583E+00 ANGLE=   3.2 DEGREES
:DIRT :  |MSR1|= 8.145E-02 |PRATT|= 1.710E+00 ANGLE=   3.2 DEGREES
:MIX  :   MSD1   REGULARIZATION:  2.00E-04 GREED: 0.04855  Newton 1.00  0.0476                
     
       CHARGES OF MIXED CHARGE DENSITY
:CTO   : INTERSTITIAL     UP =     7.660966 DN =     7.660966 TOT =    15.321931
:CPC   : PW Pseudocharge  UP =    13.373731 DN =    13.373731 TOT =    26.747462
:CTO001: CHARGE SPHERE  1 UP =     5.295588 DN =     5.295588 TOT =    10.591176
:CTO002: CHARGE SPHERE  2 UP =     3.575378 DN =     3.575378 TOT =     7.150757

       SPIN MAGNETIC MOMENTS OF MIXED CHARGE DENSITY
:MMINT:  MAGNETIC MOMENT IN INTERSTITIAL  =   -0.00000
:MMI001: MAGNETIC MOMENT IN SPHERE   1    =   -0.00000
:MMI002: MAGNETIC MOMENT IN SPHERE   2    =   -0.00000
:MMTOT:  SPIN MAGNETIC MOMENT IN CELL     =   -0.00000

:NEC03: NUCLEAR AND ELECTRONIC CHARGE     90.00000    90.00000

PW CHANGE     H    K    L             Current                    Change               Residue
:PUP001:      0    0    0  2.77117432E-02 0.00000000E+00 -1.138E-04  0.000E+00 -2.327E-03  0.000E+00
:PUP002:      0    0   -1 -3.74589162E-10 0.00000000E+00  1.779E-11  0.000E+00  3.670E-10  0.000E+00
:PUP003:     -1    0    0 -1.96431045E-02 0.00000000E+00  5.469E-05  0.000E+00  1.128E-03  0.000E+00
:PUP004:     -1    0   -1  2.23080580E-02-3.86386890E-02 -1.029E-05  1.783E-05 -2.174E-04  3.765E-04
:PUP005:     -1    0    1  1.33516163E-02 2.31256772E-02 -8.741E-06 -1.514E-05 -1.868E-04 -3.235E-04
:PUP006:      0    0   -2 -1.81850410E-10 0.00000000E+00  7.236E-12  0.000E+00  1.484E-10  0.000E+00
:PUP007:     -2    1    0 -7.99259644E-03-1.18744048E-02 -7.550E-06 -3.117E-05 -1.517E-04 -6.895E-04
:PUP008:     -1   -1    0 -7.99259644E-03 1.18744048E-02 -7.550E-06  3.117E-05 -1.517E-04  6.895E-04
:PUP009:     -1    0   -2  1.91282852E-02 3.31311635E-02  4.839E-05  8.381E-05  1.086E-03  1.881E-03
:PUP010:     -1    0    2  5.03068730E-04-8.71340642E-04  3.770E-06 -6.529E-06  1.302E-04 -2.255E-04
:PUP011:     -2    1   -1 -2.34311390E-02-1.28871777E-02 -7.174E-05 -2.407E-05 -1.584E-03 -6.051E-04
:PUP012:     -1   -1   -1  2.28761925E-02 1.38483733E-02  5.671E-05  5.010E-05  1.316E-03  1.069E-03
  
:PDN001:      0    0    0  2.77117432E-02 0.00000000E+00 -1.138E-04  0.000E+00 -2.327E-03  0.000E+00
:PDN002:      0    0   -1 -3.74589162E-10 0.00000000E+00  1.779E-11  0.000E+00  3.670E-10  0.000E+00
:PDN003:     -1    0    0 -1.96431045E-02 0.00000000E+00  5.469E-05  0.000E+00  1.128E-03  0.000E+00
:PDN004:     -1    0   -1  2.23080580E-02-3.86386890E-02 -1.029E-05  1.783E-05 -2.174E-04  3.765E-04
:PDN005:     -1    0    1  1.33516163E-02 2.31256772E-02 -8.741E-06 -1.514E-05 -1.868E-04 -3.235E-04
:PDN006:      0    0   -2 -1.81850410E-10 0.00000000E+00  7.236E-12  0.000E+00  1.484E-10  0.000E+00
:PDN007:     -2    1    0 -7.99259644E-03-1.18744048E-02 -7.550E-06 -3.117E-05 -1.517E-04 -6.895E-04
:PDN008:     -1   -1    0 -7.99259644E-03 1.18744048E-02 -7.550E-06  3.117E-05 -1.517E-04  6.895E-04
:PDN009:     -1    0   -2  1.91282852E-02 3.31311635E-02  4.839E-05  8.381E-05  1.086E-03  1.881E-03
:PDN010:     -1    0    2  5.03068730E-04-8.71340642E-04  3.770E-06 -6.529E-06  1.302E-04 -2.255E-04
:PDN011:     -2    1   -1 -2.34311390E-02-1.28871777E-02 -7.174E-05 -2.407E-05 -1.584E-03 -6.051E-04
:PDN012:     -1   -1   -1  2.28761925E-02 1.38483733E-02  5.671E-05  5.010E-05  1.316E-03  1.069E-03

:ENE  : ********** TOTAL ENERGY IN Ry =        -2644.81047188

       TOTAL FORCE IN mRy/a.u. = |F|     Fx             Fy             Fz     with/without FOR in case.in2
:FOR001:   1.ATOM          3.038          0.000          0.000         -3.038 partial forces
:FOR002:   2.ATOM        781.481       -603.126       -311.149       -387.476 partial forces
       TOTAL FORCE WITH RESPECT TO GLOBAL CARTESIAN COORDINATES:
:FCA001:   1.ATOM                        -2.631         -1.519          0.000 partial forces
:FCA002:   2.ATOM                      -603.126       -311.149       -387.476 partial forces
       TOTAL FORCE WITH RESPECT TO THE GLOBAL COORDINATE SYSTEM:
:FGL001:   1.ATOM                -3.038389273    -3.038389273     0.000000000 partial forces
:FGL002:   2.ATOM              -696.429953618  -659.363864069  -387.476035489 partial forces
 Flat Integration
 New Mode for Coulomb Integral
 Consistent 3/8+Simpson combinations
 Extension of core to zero
 LDM version in phi
 Fifth-order quadrature in outwin


            ---------
:ITE004:  4. ITERATION
            ---------

:NATO :    2 INDEPENDENT AND    9 TOTAL ATOMS IN UNITCELL
       SUBSTANCE: SiO2 for tests                                              

       LATTICE                      = H   
:POT  : POTENTIAL OPTION EX_PBE EC_PBE VX_PBE VC_PBE
:LAT  : LATTICE CONSTANTS=  9.26193  9.26193 10.21737
:VOL  : UNIT CELL VOLUME =     759.05354
       MODE OF CALCULATION IS       = RELA
       SPINPOLARIZED CALCULATION
:IFFT  : FFT-parameters:   72   72   80 Factor: 2.00


   CONVERGENCE PARAMETER FOR PSEUDOCHARGE: NCON=  9
   MAXIMAL VALUE OF RMT(JATOM)*ABSK(NKK) : RK  =19.43469


:VKCOUL :  VK-COUL convergence: 0.341E-05
       ATOMNUMBER=  1 Si         VCOUL-ZERO = -0.14376E+01
:EFG001:                        EFG         =     0.03557   *10**21  V / m**2
                               V20  TOT/SRF=     0.03081    -0.01496
                               V22  TOT/SRF=     0.00526     0.00159
                               V22M TOT/SRF=     0.00476    -0.01834
                               V21  TOT/SRF=     0.00000     0.00000
                               V21M TOT/SRF=     0.00000     0.00000

             -0.01253    0.00476    0.00000       -0.01070    0.00000    0.00000
              0.00476   -0.02304    0.00000        0.00000   -0.02488    0.00000
              0.00000    0.00000    0.03557        0.00000    0.00000    0.03557

         MAIN DIRECTIONS OF THE EFG   1.0000 -0.3855  0.0000
                                      0.3855  1.0000  0.0000
                                      0.0000  0.0000  1.0000
:ANG001:  ANGLE WITH OLD X-AXIS =        21.1

:ETA001:                         ASYMM. ETA =     0.39862


       ATOMNUMBER=  2 O          VCOUL-ZERO = -0.55188E-01
:EFG002:                        EFG         =     3.04101   *10**21  V / m**2
                               V20  TOT/SRF=     0.02901     0.02317
                               V22  TOT/SRF=     0.60799     0.58454
                               V22M TOT/SRF=    -1.33103    -1.29150
                               V21  TOT/SRF=    -1.64957    -1.59064
                               V21M TOT/SRF=     1.46623     1.40154

              0.59124   -1.33103   -1.64957        3.04101    0.00000    0.00000
             -1.33103   -0.62473    1.46623        0.00000   -1.24260    0.00000
             -1.64957    1.46623    0.03350        0.00000    0.00000   -1.79841

         MAIN DIRECTIONS OF THE EFG   1.0000  1.0000  0.0119
                                     -0.7236  0.5290  1.0000
                                     -0.9012  0.6849 -0.7897
:ANG002:  ANGLE WITH OLD X-AXIS =        45.0

:ETA002:                         ASYMM. ETA =     0.18277


     HELLMANN-FEYNMAN-FORCE IN mRy/a.u. = |F|  Fx       Fy             Fz
:FHF001:   1.ATOM      4.837353126530      0.000000000000      0.000000000000     -4.837353126530

     HELLMANN-FEYNMAN-FORCE IN mRy/a.u. = |F|  Fx       Fy             Fz
:FHF002:   2.ATOM   1038.120620267929   -800.386729266633   -415.717684945327   -514.056720861647

:FIT001: LUSE= 13 SIGMA OF V-XC FIT FOR ATOM  1  0.8165102E-02
:FIT001: LUSE= 13 SIGMA OF V-XC FIT FOR ATOM  1  0.8165102E-02
:FIT002: LUSE= 13 SIGMA OF V-XC FIT FOR ATOM  2  0.1242175E-02
:FIT002: LUSE= 13 SIGMA OF V-XC FIT FOR ATOM  2  0.1242175E-02
:DEN  : DENSITY INTEGRAL  =         -1216.68301879   (Ry)
       ELS_POTENTIAL_AT Z=0 and Z=0.5:   0.04438  -0.08637
       ELS_POTENTIAL_AT Y=0 and Y=0.5:   0.00000   0.00000
:VZERO:v0,v0c,v0x  -0.69397   0.04438  -0.73835 v5,v5c,v5x  -0.75090  -0.08637  -0.66452
:VZERY:v0,v0c,v0x  -0.70277   0.00000  -0.70277 v5,v5c,v5x  -0.70277   0.00000  -0.70277
:VZERX:v0,v0c,v0x  -0.10708   0.27365  -0.38072 v5,v5c,v5x  -2.51170  -1.63031  -0.88138
:LMAX-WF:   10   Non-Spherical LMAX:   4

          ATOMIC SPHERE DEPENDENT PARAMETERS FOR ATOM  Si        
:e__0001: OVERALL ENERGY PARAMETER IS   -0.3000
          OVERALL BASIS SET ON ATOM IS LAPW
:E0_0001: E( 0)=   -0.3000
             APW+lo
:E1_0001: E( 1)=   -0.3000
             APW+lo

          ATOMIC SPHERE DEPENDENT PARAMETERS FOR ATOM  O         
:e__0002: OVERALL ENERGY PARAMETER IS   -0.3000
          OVERALL BASIS SET ON ATOM IS LAPW
:E0_0002: E( 0)=    0.1000
             APW+lo
:E0_0002: E( 0)=   -1.2493   E(BOTTOM)=   -2.543   E(TOP)=    0.045  1  2   231
             LOCAL ORBITAL
:E1_0002: E( 1)=   -0.3000
             APW+lo

       K=   0.00000   0.00000   0.00000            1
:RKM  : MATRIX SIZE  1625LOs:  42  RKM= 6.97  WEIGHT= 1.00  PGR:    
       EIGENVALUES ARE:
:EIG00001:      -1.4862351   -1.3893246   -1.3893246   -1.3492779   -1.3478431
:EIG00006:      -1.3478431   -0.6341914   -0.6341914   -0.4493389   -0.4459683
:EIG00011:      -0.4333802   -0.4333802   -0.2603244   -0.2603244   -0.2473309
:EIG00016:      -0.2303258   -0.1787180   -0.1787180   -0.1764861   -0.1432153
:EIG00021:      -0.1432153   -0.1244350   -0.0995956   -0.0995956    0.4699559
:EIG00026:       0.7374513    0.7374513    0.7564957    0.7564958    0.8658935
:EIG00031:       0.8695012    0.9375306    0.9554107    0.9554107    0.9807066
:EIG00036:       0.9807066    1.0550118    1.1423920    1.1507980    1.1507980
:EIG00041:       1.1636479    1.1636479    1.2800345    1.2800345    1.3727141
       ********************************************************

:KPT   :      NUMBER OF K-POINTS:    50
:LMAX-WF:   10   Non-Spherical LMAX:   4

          ATOMIC SPHERE DEPENDENT PARAMETERS FOR ATOM  Si        
:e__0001: OVERALL ENERGY PARAMETER IS   -0.3000
          OVERALL BASIS SET ON ATOM IS LAPW
:E0_0001: E( 0)=   -0.3000
             APW+lo
:E1_0001: E( 1)=   -0.3000
             APW+lo

          ATOMIC SPHERE DEPENDENT PARAMETERS FOR ATOM  O         
:e__0002: OVERALL ENERGY PARAMETER IS   -0.3000
          OVERALL BASIS SET ON ATOM IS LAPW
:E0_0002: E( 0)=    0.1000
             APW+lo
:E0_0002: E( 0)=   -1.2493   E(BOTTOM)=   -2.543   E(TOP)=    0.045  1  2   231
             LOCAL ORBITAL
:E1_0002: E( 1)=   -0.3000
             APW+lo

       K=   0.00000   0.00000   0.00000            1
:RKM  : MATRIX SIZE  1625LOs:  42  RKM= 6.97  WEIGHT= 1.00  PGR:    
       EIGENVALUES ARE:
:EIG00001:      -1.4862351   -1.3893246   -1.3893246   -1.3492779   -1.3478431
:EIG00006:      -1.3478431   -0.6341914   -0.6341914   -0.4493389   -0.4459683
:EIG00011:      -0.4333802   -0.4333802   -0.2603244   -0.2603244   -0.2473309
:EIG00016:      -0.2303258   -0.1787180   -0.1787180   -0.1764861   -0.1432153
:EIG00021:      -0.1432153   -0.1244350   -0.0995956   -0.0995956    0.4699559
:EIG00026:       0.7374513    0.7374513    0.7564957    0.7564958    0.8658935
:EIG00031:       0.8695012    0.9375306    0.9554107    0.9554107    0.9807066
:EIG00036:       0.9807066    1.0550118    1.1423920    1.1507980    1.1507980
:EIG00041:       1.1636479    1.1636479    1.2800345    1.2800345    1.3727141
       ********************************************************

:KPT   :      NUMBER OF K-POINTS:    50
       Insulator, EF-inconsistency corrected
:GAP (global)   :  0.553665 Ry =     7.533 eV (accurate value if proper k-mesh)
:GAP (this spin):  0.553665 Ry =     7.533 eV (accurate value if proper k-mesh)
         Bandranges (emin - emax) and occupancy:
:BAN00014:  14   -0.274691   -0.243906  1.00000000
:BAN00015:  15   -0.252188   -0.231534  1.00000000
:BAN00016:  16   -0.232958   -0.204792  1.00000000
:BAN00017:  17   -0.213631   -0.178718  1.00000000
:BAN00018:  18   -0.197730   -0.175638  1.00000000
:BAN00019:  19   -0.195919   -0.144748  1.00000000
:BAN00020:  20   -0.175808   -0.143215  1.00000000
:BAN00021:  21   -0.156158   -0.135079  1.00000000
:BAN00022:  22   -0.135173   -0.096355  1.00000000
:BAN00023:  23   -0.119818   -0.091544  1.00000000
:BAN00024:  24   -0.110049   -0.083709  1.00000000
:BAN00025:  25    0.469956    0.676995  0.00000000
:BAN00026:  26    0.598216    0.739612  0.00000000
:BAN00027:  27    0.719985    0.761122  0.00000000
:BAN00028:  28    0.745405    0.792642  0.00000000
:BAN00029:  29    0.756496    0.819603  0.00000000
        Energy to separate low and high energystates:   -0.75361


:NOE  : NUMBER OF ELECTRONS          =   48.000

:FER  : F E R M I - ENERGY(TETRAH.M.)=  -0.0837090828
:GMA  : POTENTIAL AND CHARGE CUT-OFF  12.00 Ry**.5

:POS001: ATOM   -1 X,Y,Z = 0.46913 0.46913 0.50000  MULT= 3  ZZ= 14.000  Si        

       LMMAX 25
       LM=   0 0  1 0  2 0  2 2 -2 2  3 0  3 2 -3 2  4 0  4 2 -4 2  4 4 -4 4  5 0  5 2 -5 2  5 4
        -5 4  6 0  6 2 -6 2  6 4 -6 4  6 6 -6 6

:CHA001: TOTAL VALENCE CHARGE INSIDE SPHERE   1 =   0.2460    (RMT=  1.4000 )
:PCS001: PARTIAL CHARGES SPHERE =  1 S,P,D,F,PX,PY,PZ,D-Z2,D-X2Y2,D-XY,D-XZ,D-YZ 
:QTL001: 0.0856 0.1103 0.0452 0.0041 0.0371 0.0374 0.0358 0.0051 0.0070 0.0101 0.0117 0.0113
        Q-s-low E-s-low   Q-p-low E-p-low   Q-d-low E-d-low   Q-f-low E-f-low
:EPL001:  0.0227 -1.4343    0.0210 -1.3657    0.0067 -1.3657    0.0008 -1.4055
        Q-s-hi  E-s-hi    Q-p-hi  E-p-hi    Q-d-hi  E-d-hi    Q-f-hi  E-f-hi 
:EPH001:  0.0629 -0.5722    0.0893 -0.4215    0.0385 -0.2886    0.0032 -0.2712

                      QXX         QXY         QYY         QZZ       UP TO R
:VZZ001:            -0.11188     0.09751    -0.19644     0.30831       1.400

:POS002: ATOM   -2 X,Y,Z = 0.14451 0.41337 0.61807  MULT= 6  ZZ=  8.000  O         

       LMMAX 49

:CHA002: TOTAL VALENCE CHARGE INSIDE SPHERE   2 =   2.9032    (RMT=  1.6200 )
:PCS002: PARTIAL CHARGES SPHERE =  2 S,P,D,F,PX,PY,PZ,D-Z2,D-X2Y2,D-XY,D-XZ,D-YZ 
:QTL002: 0.8113 2.0836 0.0062 0.0019 0.6902 0.6994 0.6940 0.0010 0.0014 0.0011 0.0013 0.0014
        Q-s-low E-s-low   Q-p-low E-p-low   Q-d-low E-d-low   Q-f-low E-f-low
:EPL002:  0.7818 -1.3843    0.0093 -1.3941    0.0018 -1.3936    0.0002 -1.3872
        Q-s-hi  E-s-hi    Q-p-hi  E-p-hi    Q-d-hi  E-d-hi    Q-f-hi  E-f-hi 
:EPH002:  0.0295 -0.3485    2.0743 -0.2744    0.0044 -0.3589    0.0018 -0.3401

                      QXX         QXY         QYY         QZZ       UP TO R
:VZZ002:             0.55582    -1.22244    -0.61455     0.05873       1.620

:CHA  : TOTAL VALENCE CHARGE INSIDE UNIT CELL =      24.000000

:SUM  : SUM OF EIGENVALUES =         -13.498931032

       Insulator, EF-inconsistency corrected
:GAP (global)   :  0.553665 Ry =     7.533 eV (accurate value if proper k-mesh)
:GAP (this spin):  0.553665 Ry =     7.533 eV (accurate value if proper k-mesh)
         Bandranges (emin - emax) and occupancy:
:BAN00014:  14   -0.274691   -0.243906  1.00000000
:BAN00015:  15   -0.252188   -0.231534  1.00000000
:BAN00016:  16   -0.232958   -0.204792  1.00000000
:BAN00017:  17   -0.213631   -0.178718  1.00000000
:BAN00018:  18   -0.197730   -0.175638  1.00000000
:BAN00019:  19   -0.195919   -0.144748  1.00000000
:BAN00020:  20   -0.175808   -0.143215  1.00000000
:BAN00021:  21   -0.156158   -0.135079  1.00000000
:BAN00022:  22   -0.135173   -0.096355  1.00000000
:BAN00023:  23   -0.119818   -0.091544  1.00000000
:BAN00024:  24   -0.110049   -0.083709  1.00000000
:BAN00025:  25    0.469956    0.676995  0.00000000
[...]
:EIG00026:       0.7849288    0.7849288    0.8209350    0.8209350    0.9112892
:EIG00031:       0.9610679    1.0028591    1.0324136    1.0324136    1.0840904
:EIG00036:       1.0840904    1.1398618    1.1991449    1.2039397    1.2039397
:EIG00041:       1.2086493    1.2086493    1.3281701    1.3281701    1.4187336
:EIG00046:       1.4692668    1.4692668    1.5706884    1.5706884
 
       ********************************************************

:KPT   :      NUMBER OF K-POINTS:    50
:LMAX-WF:   10   Non-Spherical LMAX:   4

          ATOMIC SPHERE DEPENDENT PARAMETERS FOR ATOM  Si        
:e__0001: OVERALL ENERGY PARAMETER IS   -0.1028
          OVERALL BASIS SET ON ATOM IS LAPW
:E0_0001: E( 0)=   -0.1028
             APW+lo
:E1_0001: E( 1)=   -0.1028
             APW+lo

          ATOMIC SPHERE DEPENDENT PARAMETERS FOR ATOM  O         
:e__0002: OVERALL ENERGY PARAMETER IS   -0.1028
          OVERALL BASIS SET ON ATOM IS LAPW
:E0_0002: E( 0)=    0.2972
             APW+lo
:E0_0002: E( 0)=   -1.0306   E(BOTTOM)=   -2.360   E(TOP)=    0.299  1  2   229
             LOCAL ORBITAL
:E1_0002: E( 1)=   -0.1028
             APW+lo
:WARN  : P(J,JATOM) almost zero (     -0.469E-03). Shifted Energy by -0.01 down to     0.2872

       K=   0.00000   0.00000   0.00000            1
:RKM  : MATRIX SIZE  1625LOs:  42  RKM= 6.97  WEIGHT= 1.00  PGR:    
       EIGENVALUES ARE:
:EIG00001:      -1.3309465   -1.2179294   -1.2179294   -1.1696159   -1.1674438
:EIG00006:      -1.1674438   -0.5068333   -0.5068333   -0.2999596   -0.2970774
:EIG00011:      -0.2848494   -0.2848494   -0.1184308   -0.1184308   -0.1000861
:EIG00016:      -0.0818512   -0.0102123   -0.0102123   -0.0082815    0.0243436
:EIG00021:       0.0243436    0.0471163    0.0756929    0.0756929    0.5421006
:EIG00026:       0.7849288    0.7849288    0.8209350    0.8209350    0.9112892
:EIG00031:       0.9610679    1.0028591    1.0324136    1.0324136    1.0840904
:EIG00036:       1.0840904    1.1398618    1.1991449    1.2039397    1.2039397
:EIG00041:       1.2086493    1.2086493    1.3281701    1.3281701    1.4187336
:EIG00046:       1.4692668    1.4692668    1.5706884    1.5706884
 
       ********************************************************

:KPT   :      NUMBER OF K-POINTS:    50
       Insulator, EF-inconsistency corrected
:GAP (global)   :  0.443886 Ry =     6.039 eV (accurate value if proper k-mesh)
:GAP (this spin):  0.443886 Ry =     6.039 eV (accurate value if proper k-mesh)
         Bandranges (emin - emax) and occupancy:
:BAN00014:  14   -0.136306   -0.096652  1.00000000
:BAN00015:  15   -0.111841   -0.077848  1.00000000
:BAN00016:  16   -0.083528   -0.049315  1.00000000
:BAN00017:  17   -0.057998   -0.010212  1.00000000
:BAN00018:  18   -0.039111   -0.010212  1.00000000
:BAN00019:  19   -0.035083    0.023614  1.00000000
:BAN00020:  20   -0.013736    0.025331  1.00000000
:BAN00021:  21    0.009742    0.033488  1.00000000
:BAN00022:  22    0.036168    0.082231  1.00000000
:BAN00023:  23    0.052371    0.087436  1.00000000
:BAN00024:  24    0.064433    0.098214  1.00000000
:BAN00025:  25    0.542101    0.762566  0.00000000
:BAN00026:  26    0.686122    0.813670  0.00000000
:BAN00027:  27    0.766057    0.824089  0.00000000
:BAN00028:  28    0.782403    0.850172  0.00000000
:BAN00029:  29    0.815737    0.877617  0.00000000
        Energy to separate low and high energystates:   -0.63732


:NOE  : NUMBER OF ELECTRONS          =   48.000

:FER  : F E R M I - ENERGY(TETRAH.M.)=   0.0982144426
:GMA  : POTENTIAL AND CHARGE CUT-OFF  12.00 Ry**.5

:POS001: ATOM   -1 X,Y,Z = 0.46913 0.46913 0.50000  MULT= 3  ZZ= 14.000  Si        

       LMMAX 25
       LM=   0 0  1 0  2 0  2 2 -2 2  3 0  3 2 -3 2  4 0  4 2 -4 2  4 4 -4 4  5 0  5 2 -5 2  5 4
        -5 4  6 0  6 2 -6 2  6 4 -6 4  6 6 -6 6

:CHA001: TOTAL VALENCE CHARGE INSIDE SPHERE   1 =   0.2858    (RMT=  1.4000 )
:PCS001: PARTIAL CHARGES SPHERE =  1 S,P,D,F,PX,PY,PZ,D-Z2,D-X2Y2,D-XY,D-XZ,D-YZ 
:QTL001: 0.0990 0.1297 0.0523 0.0041 0.0435 0.0441 0.0421 0.0063 0.0084 0.0116 0.0132 0.0128
        Q-s-low E-s-low   Q-p-low E-p-low   Q-d-low E-d-low   Q-f-low E-f-low
:EPL001:  0.0278 -1.2698    0.0241 -1.1884    0.0071 -1.1884    0.0008 -1.2358
        Q-s-hi  E-s-hi    Q-p-hi  E-p-hi    Q-d-hi  E-d-hi    Q-f-hi  E-f-hi 
:EPH001:  0.0712 -0.4352    0.1056 -0.2695    0.0452 -0.1154    0.0033 -0.0887

                      QXX         QXY         QYY         QZZ       UP TO R
:VZZ001:            -0.09706     0.09660    -0.27986     0.37691       1.400

:POS002: ATOM   -2 X,Y,Z = 0.14451 0.41337 0.61807  MULT= 6  ZZ=  8.000  O         

       LMMAX 49

:CHA002: TOTAL VALENCE CHARGE INSIDE SPHERE   2 =   2.7410    (RMT=  1.6200 )
:PCS002: PARTIAL CHARGES SPHERE =  2 S,P,D,F,PX,PY,PZ,D-Z2,D-X2Y2,D-XY,D-XZ,D-YZ 
:QTL002: 0.7916 1.9395 0.0074 0.0022 0.6433 0.6501 0.6461 0.0012 0.0016 0.0014 0.0016 0.0016
        Q-s-low E-s-low   Q-p-low E-p-low   Q-d-low E-d-low   Q-f-low E-f-low
:EPL002:  0.7540 -1.2108    0.0100 -1.2243    0.0020 -1.2228    0.0002 -1.2144
        Q-s-hi  E-s-hi    Q-p-hi  E-p-hi    Q-d-hi  E-d-hi    Q-f-hi  E-f-hi 
:EPH002:  0.0377 -0.2127    1.9295 -0.1151    0.0054 -0.1944    0.0020 -0.1836

                      QXX         QXY         QYY         QZZ       UP TO R
:VZZ002:             0.43454    -0.92677    -0.48236     0.04781       1.620

:CHA  : TOTAL VALENCE CHARGE INSIDE UNIT CELL =      24.000000

:SUM  : SUM OF EIGENVALUES =          -9.672600027

       Insulator, EF-inconsistency corrected
:GAP (global)   :  0.443886 Ry =     6.039 eV (accurate value if proper k-mesh)
:GAP (this spin):  0.443886 Ry =     6.039 eV (accurate value if proper k-mesh)
         Bandranges (emin - emax) and occupancy:
:BAN00014:  14   -0.136306   -0.096652  1.00000000
:BAN00015:  15   -0.111841   -0.077848  1.00000000
:BAN00016:  16   -0.083528   -0.049315  1.00000000
:BAN00017:  17   -0.057998   -0.010212  1.00000000
:BAN00018:  18   -0.039111   -0.010212  1.00000000
:BAN00019:  19   -0.035083    0.023614  1.00000000
:BAN00020:  20   -0.013736    0.025331  1.00000000
:BAN00021:  21    0.009742    0.033488  1.00000000
:BAN00022:  22    0.036168    0.082231  1.00000000
:BAN00023:  23    0.052371    0.087436  1.00000000
:BAN00024:  24    0.064433    0.098214  1.00000000
:BAN00025:  25    0.542101    0.762566  0.00000000
:BAN00026:  26    0.686122    0.813670  0.00000000
:BAN00027:  27    0.766057    0.824089  0.00000000
:BAN00028:  28    0.782403    0.850172  0.00000000
:BAN00029:  29    0.815737    0.877617  0.00000000
        Energy to separate low and high energystates:   -0.63732


:NOE  : NUMBER OF ELECTRONS          =   48.000

:FER  : F E R M I - ENERGY(TETRAH.M.)=   0.0982144426
:GMA  : POTENTIAL AND CHARGE CUT-OFF  12.00 Ry**.5

:POS001: ATOM   -1 X,Y,Z = 0.46913 0.46913 0.50000  MULT= 3  ZZ= 14.000  Si        

       LMMAX 25
       LM=   0 0  1 0  2 0  2 2 -2 2  3 0  3 2 -3 2  4 0  4 2 -4 2  4 4 -4 4  5 0  5 2 -5 2  5 4
        -5 4  6 0  6 2 -6 2  6 4 -6 4  6 6 -6 6

:CHA001: TOTAL VALENCE CHARGE INSIDE SPHERE   1 =   0.2858    (RMT=  1.4000 )
:PCS001: PARTIAL CHARGES SPHERE =  1 S,P,D,F,PX,PY,PZ,D-Z2,D-X2Y2,D-XY,D-XZ,D-YZ 
:QTL001: 0.0990 0.1297 0.0523 0.0041 0.0435 0.0441 0.0421 0.0063 0.0084 0.0116 0.0132 0.0128
        Q-s-low E-s-low   Q-p-low E-p-low   Q-d-low E-d-low   Q-f-low E-f-low
:EPL001:  0.0278 -1.2698    0.0241 -1.1884    0.0071 -1.1884    0.0008 -1.2358
        Q-s-hi  E-s-hi    Q-p-hi  E-p-hi    Q-d-hi  E-d-hi    Q-f-hi  E-f-hi 
:EPH001:  0.0712 -0.4352    0.1056 -0.2695    0.0452 -0.1154    0.0033 -0.0887

                      QXX         QXY         QYY         QZZ       UP TO R
:VZZ001:            -0.09706     0.09660    -0.27986     0.37691       1.400

:POS002: ATOM   -2 X,Y,Z = 0.14451 0.41337 0.61807  MULT= 6  ZZ=  8.000  O         

       LMMAX 49

:CHA002: TOTAL VALENCE CHARGE INSIDE SPHERE   2 =   2.7410    (RMT=  1.6200 )
:PCS002: PARTIAL CHARGES SPHERE =  2 S,P,D,F,PX,PY,PZ,D-Z2,D-X2Y2,D-XY,D-XZ,D-YZ 
:QTL002: 0.7916 1.9395 0.0074 0.0022 0.6433 0.6501 0.6461 0.0012 0.0016 0.0014 0.0016 0.0016
        Q-s-low E-s-low   Q-p-low E-p-low   Q-d-low E-d-low   Q-f-low E-f-low
:EPL002:  0.7540 -1.2108    0.0100 -1.2243    0.0020 -1.2228    0.0002 -1.2144
        Q-s-hi  E-s-hi    Q-p-hi  E-p-hi    Q-d-hi  E-d-hi    Q-f-hi  E-f-hi 
:EPH002:  0.0377 -0.2127    1.9295 -0.1151    0.0054 -0.1944    0.0020 -0.1836

                      QXX         QXY         QYY         QZZ       UP TO R
:VZZ002:             0.43454    -0.92677    -0.48236     0.04781       1.620

:CHA  : TOTAL VALENCE CHARGE INSIDE UNIT CELL =      24.000000

:SUM  : SUM OF EIGENVALUES =          -9.672600030


        1.ATOM      Si                    4 CORE STATES
       CORE-FORCE in mRy/a.u. = |F|      Fx             Fy             Fz
:FCO001:   1.ATOM     23.006765419483      0.000000000000      0.000000000000    -23.006765419483

:1S 001: 1S                -130.616490255 Ry
:2S 001: 2S                  -9.613111999 Ry
:2PP001: 2P*                 -6.415169298 Ry
:2P 001: 2P                  -6.367662117 Ry

        2.ATOM      O                     1 CORE STATES
       CORE-FORCE in mRy/a.u. = |F|      Fx             Fy             Fz
:FCO002:   2.ATOM    344.620669819553    264.594820750812    137.978884654176    172.379854647556

:1S 002: 1S                 -36.901797747 Ry

        1.ATOM      Si                    4 CORE STATES
       CORE-FORCE in mRy/a.u. = |F|      Fx             Fy             Fz
:FCO001:   1.ATOM     23.006765429143      0.000000000000      0.000000000000    -23.006765429143

:1S 001: 1S                -130.616490255 Ry
:2S 001: 2S                  -9.613111999 Ry
:2PP001: 2P*                 -6.415169298 Ry
:2P 001: 2P                  -6.367662117 Ry

        2.ATOM      O                     1 CORE STATES
       CORE-FORCE in mRy/a.u. = |F|      Fx             Fy             Fz
:FCO002:   2.ATOM    344.620669814657    264.594820746688    137.978884652317    172.379854645588

:1S 002: 1S                 -36.901797747 Ry
:CINT001 Core Integral Atom   1 Up    4.961990 Dn   4.961990 Total   9.923980
:CINT002 Core Integral Atom   2 Up    1.001860 Dn   1.001860 Total   2.003721

       DENSITY AT NUCLEUS
        JATOM        VALENCE       SEMI-CORE          CORE           TOTAL
:RTO001:   1        5.897711     1886.365768        0.000000     1892.263479
:RTO002:   2       14.552131      304.029963        0.000000      318.582093

       HYPERFINE FIELDS FOR THOMSON RADIUS
:HFF001:            0.000           0.000           0.000           0.000 (KGAUSS)
:HFF002:            0.000          -0.000           0.000           0.000 (KGAUSS)
     
       CHARGES OF NEW CHARGE DENSITY
:NTO   : INTERSTITIAL     UP =     6.800172 DN =     6.800172 TOT =    13.600344
:NPC   : PW Pseudocharge  UP =    13.232578 DN =    13.232578 TOT =    26.465157
:NTO001: CHARGE SPHERE  1 UP =     5.247748 DN =     5.247748 TOT =    10.495497
:NTO002: CHARGE SPHERE  2 UP =     3.742815 DN =     3.742815 TOT =     7.485631

:NEC01: NUCLEAR AND ELECTRONIC CHARGE     90.00000    90.00062
     
       CHARGES OF OLD CHARGE DENSITY
:OTO   : INTERSTITIAL     UP =     6.799624 DN =     6.799624 TOT =    13.599249
:OPC   : PW Pseudocharge  UP =    13.233133 DN =    13.233133 TOT =    26.466266
:OTO001: CHARGE SPHERE  1 UP =     5.247724 DN =     5.247724 TOT =    10.495448
:OTO002: CHARGE SPHERE  2 UP =     3.742867 DN =     3.742867 TOT =     7.485735

:NEC02: NUCLEAR AND ELECTRONIC CHARGE     90.00000    90.00000
     
       CONVERGENCE TEST
:DTO001: DIFFERENCE SPHERE  1 UP =  0.0000657 DN =  0.0000657 TOT =  0.0001313
:DTO002: DIFFERENCE SPHERE  2 UP =  0.0000947 DN =  0.0000947 TOT =  0.0001893

:DIS  :  CHARGE DISTANCE       ( 0.0000947 for atom    2 spin 2)      0.0003400
 PW Mixed is         2149
 
******************************************************
* MULTISECANT MIXING VER9 RELEASE 10.4.0              *
* Standard Mode with controls                        *
* Fixed density scale                                *
* Regularization       1.000E-04                     *
* Trust Upper Limit    5.000E+00                     *
* Max Number of Memory Steps    8                    *
******************************************************
 
:PWTMP   6.1772E+02  5.7600E+02  7.5905E+02
:PLANE:  PW TOTAL     11.6581 DISTAN   1.27E-03  1.09E-02 %
:CHARG:  CLM/ATOM     57.1156 DISTAN   1.98E-04  3.48E-04 %
 
Step History
        DMIX         DMIXT        Red     Pred      Trust     Lambda    MagRel    MagAbs     Beta
  4   4.8546E-02   4.8546E-02  8.87E-01  9.80E-01  2.71E-01  1.42E+00  4.76E-02  8.14E-02  9.84E-01
  5   1.2137E-01   3.8855E-02  8.08E-01  8.20E-01  3.26E-01  1.63E+00  8.37E-02  1.27E-01  1.00E+00
  6   2.4605E-01   9.5278E-02  7.12E-01  7.19E-01  5.15E-01  2.04E+00  1.42E-01  1.75E-01  1.00E+00
  7   3.5000E-01   2.1503E-01  5.48E-01  5.68E-01  9.23E-01  1.33E+00  3.04E-01  2.66E-01  1.00E+00
  8   3.5000E-01   3.5000E-01  1.24E-01  1.55E-01  2.21E+00  1.40E+00  9.93E-01  4.75E-01  1.00E+00
  9   2.2751E-01   2.2751E-01  5.82E-01  7.71E-01  8.01E+00  1.15E+00  3.52E-01  2.09E-02  1.00E+00
 10   3.5000E-01   3.5000E-01  1.21E-01  2.48E-01  1.07E+01  8.98E-01  9.36E-01  3.24E-02  1.00E+00
 11   2.7953E-01   2.7953E-01  4.57E-01  5.71E-01  1.42E+01  1.26E+00  7.89E-01  3.31E-03  1.00E+00
 12   3.2598E-01   3.2598E-01 -1.00E+00  5.05E-01  1.90E+01  1.00E+00  6.64E-01  1.27E-03  1.00E+00
:JACOBIANS    2.060E+00   1.144E+00
  
:NORMS:  1/Froebius, Min, Max, Used   0.8602E+00  0.7430E+00  0.1081E+01  0.8602E+00
:INFO :  Number of Memory Steps    8 Skipping    3
:INFO :  SLambda=    1.2614582259  Max    1.2614582259
:PREDicted Charge, CTotal, PW Trust    1.017E-04   7.783E-04   2.318E-03
:PREDicted DMix, Beta, BLim   5.0587E-01  1.2717E+00  2.1223E+01

Eigenvalues, unscaled except for SY+YY
   #     SY Real        SY Imag          SS             YY         SY+YY Real      SY+YY Imag
   1   2.774346E+00   0.000000E+00   2.980931E+00   4.263530E+00   7.714850E+00   0.000000E+00
   2   1.721173E+00   0.000000E+00   1.699657E+00   1.781244E+00   3.954985E+00   0.000000E+00
   3   1.066366E+00   0.000000E+00   9.665165E-01   1.249763E+00   2.596523E+00   0.000000E+00
   4   2.545093E-01   0.000000E+00   1.795914E-01   3.660030E-01   6.371273E-01   0.000000E+00
   5   2.059793E-01   0.000000E+00   8.661528E-02   3.280593E-01   6.818264E-01   0.000000E+00
   6   9.111958E-03   0.000000E+00   6.415304E-03   1.137433E-02   2.312914E-02   0.000000E+00
   7   7.511814E-07   0.000000E+00   9.572098E-06   2.464915E-05   2.579453E-06   0.000000E+00
   8   1.479768E-05   0.000000E+00   3.689339E-07   1.605465E-06   4.400083E-05   0.000000E+00
 
:INFO :  Singular value  7.749E+00 Weight  1.000E+00 Projection -5.116E-05
:INFO :  Singular value  3.948E+00 Weight  1.000E+00 Projection -6.993E-05
:INFO :  Singular value  2.595E+00 Weight  1.000E+00 Projection -3.890E-04
:INFO :  Singular value  6.829E-01 Weight  1.000E+00 Projection -5.505E-04
:INFO :  Singular value  6.350E-01 Weight  1.000E+00 Projection  5.336E-04
:INFO :  Singular value  2.313E-02 Weight  9.997E-01 Projection -5.292E-04
:INFO :  Singular value  4.400E-05 Weight  1.054E-02 Projection -8.232E-04
:INFO :  Singular value  2.579E-06 Weight  3.660E-05 Projection -4.456E-06
:RANK :  ACTIVE   6.01/8  =  75.13 % ; YY RANK   6.00/8  =  75.02 %
 
:BLIM :  VZERO Control Off
:TRUST:  Step 2.25E+01  Charge 9.37E-02 (e) CTO  4.60E-01 (e) PW  4.67E-01 (e)
:DIRM :  MEMORY  8/8  SCALE   1.000 RED  0.39 PRED  0.51 NEXT  0.58 
:TRAVE:  Charge 3.32E-03 (e) CTO  1.74E-02 (e) PW  8.67E-03 (e)
:DIRP :  |MSR1|= 4.887E-04 |PRATT|= 6.344E-04 ANGLE=   8.2 DEGREES
:DIRQ :  |MSR1|= 2.879E-04 |PRATT|= 3.970E-04 ANGLE=  31.8 DEGREES
:DIRT :  |MSR1|= 5.672E-04 |PRATT|= 7.484E-04 ANGLE=  17.8 DEGREES
:MIX  :   MSE1   REGULARIZATION:  4.26E-04 GREED: 0.35000  Newton 1.00  0.7579                
     
       CHARGES OF MIXED CHARGE DENSITY
:CTO   : INTERSTITIAL     UP =     6.799720 DN =     6.799720 TOT =    13.599440
:CPC   : PW Pseudocharge  UP =    13.232212 DN =    13.232212 TOT =    26.464424
:CTO001: CHARGE SPHERE  1 UP =     5.247742 DN =     5.247742 TOT =    10.495485
:CTO002: CHARGE SPHERE  2 UP =     3.742842 DN =     3.742842 TOT =     7.485684

       SPIN MAGNETIC MOMENTS OF MIXED CHARGE DENSITY
:MMINT:  MAGNETIC MOMENT IN INTERSTITIAL  =    0.00000
:MMI001: MAGNETIC MOMENT IN SPHERE   1    =    0.00000
:MMI002: MAGNETIC MOMENT IN SPHERE   2    =   -0.00000
:MMTOT:  SPIN MAGNETIC MOMENT IN CELL     =   -0.00000

:NEC03: NUCLEAR AND ELECTRONIC CHARGE     90.00000    90.00000

PW CHANGE     H    K    L             Current                    Change               Residue
:PUP001:      0    0    0  2.63906710E-02 0.00000000E+00 -1.087E-06  0.000E+00 -1.210E-06  0.000E+00
:PUP002:      0    0   -1 -2.47465776E-11 0.00000000E+00 -1.587E-13  0.000E+00 -1.997E-13  0.000E+00
:PUP003:     -1    0    0 -1.92169965E-02 0.00000000E+00  1.077E-06  0.000E+00  1.845E-06  0.000E+00
:PUP004:     -1    0   -1  2.22169387E-02-3.84808657E-02 -1.408E-06  2.439E-06 -1.713E-06  2.966E-06
:PUP005:     -1    0    1  1.33428033E-02 2.31104127E-02 -8.928E-07 -1.546E-06 -1.227E-06 -2.126E-06
:PUP006:      0    0   -2 -4.00196685E-11 0.00000000E+00 -7.121E-14  0.000E+00 -8.975E-14  0.000E+00
:PUP007:     -2    1    0 -7.86256758E-03-1.17812459E-02  6.337E-07  5.761E-07  5.508E-07  6.058E-07
:PUP008:     -1   -1    0 -7.86256758E-03 1.17812459E-02  6.337E-07 -5.761E-07  5.508E-07 -6.058E-07
:PUP009:     -1    0   -2  1.88114029E-02 3.25823072E-02 -8.426E-07 -1.459E-06 -9.191E-07 -1.592E-06
:PUP010:     -1    0    2  3.36755564E-04-5.83277774E-04  4.177E-07 -7.234E-07  4.036E-07 -6.990E-07
:PUP011:     -2    1   -1 -2.33368358E-02-1.22387954E-02  1.212E-06  2.466E-08  1.529E-06 -1.268E-07
:PUP012:     -1   -1   -1  2.22675253E-02 1.40908954E-02 -6.275E-07 -1.038E-06 -6.545E-07 -1.387E-06
  
:PDN001:      0    0    0  2.63906710E-02 0.00000000E+00 -1.087E-06  0.000E+00 -1.210E-06  0.000E+00
:PDN002:      0    0   -1 -2.47465777E-11 0.00000000E+00 -1.587E-13  0.000E+00 -1.997E-13  0.000E+00
:PDN003:     -1    0    0 -1.92169965E-02 0.00000000E+00  1.077E-06  0.000E+00  1.845E-06  0.000E+00
:PDN004:     -1    0   -1  2.22169387E-02-3.84808657E-02 -1.408E-06  2.439E-06 -1.713E-06  2.966E-06
:PDN005:     -1    0    1  1.33428033E-02 2.31104127E-02 -8.928E-07 -1.546E-06 -1.227E-06 -2.126E-06
:PDN006:      0    0   -2 -4.00196685E-11 0.00000000E+00 -7.121E-14  0.000E+00 -8.975E-14  0.000E+00
:PDN007:     -2    1    0 -7.86256758E-03-1.17812459E-02  6.337E-07  5.761E-07  5.508E-07  6.058E-07
:PDN008:     -1   -1    0 -7.86256758E-03 1.17812459E-02  6.337E-07 -5.761E-07  5.508E-07 -6.058E-07
:PDN009:     -1    0   -2  1.88114029E-02 3.25823072E-02 -8.426E-07 -1.459E-06 -9.191E-07 -1.592E-06
:PDN010:     -1    0    2  3.36755563E-04-5.83277774E-04  4.177E-07 -7.234E-07  4.036E-07 -6.990E-07
:PDN011:     -2    1   -1 -2.33368358E-02-1.22387954E-02  1.212E-06  2.466E-08  1.529E-06 -1.268E-07
:PDN012:     -1   -1   -1  2.22675253E-02 1.40908954E-02 -6.275E-07 -1.038E-06 -6.545E-07 -1.387E-06

:ENE  : *WARNING** TOTAL ENERGY IN Ry =        -2644.25705140

       TOTAL FORCE IN mRy/a.u. = |F|     Fx             Fy             Fz     with/without FOR in case.in2
:FOR001:   1.ATOM          2.613          0.000          0.000          2.613 partial forces
:FOR002:   2.ATOM        151.137       -117.038        -60.822        -73.791 partial forces
       TOTAL FORCE WITH RESPECT TO GLOBAL CARTESIAN COORDINATES:
:FCA001:   1.ATOM                         2.263          1.306          0.000 partial forces
:FCA002:   2.ATOM                      -117.038        -60.822        -73.791 partial forces
       TOTAL FORCE WITH RESPECT TO THE GLOBAL COORDINATE SYSTEM:
:FGL001:   1.ATOM                 2.612655482     2.612655482     0.000000000 partial forces
:FGL002:   2.ATOM              -135.144301119  -128.393926813   -73.790941702 partial forces
