
:LABEL1: Calculations in /home/cmueller/wien/FZU/src/quartz/check_E_7
:LABEL2: on cv036 at Sat Jun 15 11:25:05 PM CEST 2024
:LABEL3: using WIEN2k_19.1 (Release 25/6/2019) in /home/cmueller/WIENROOT
:LABEL4: using the command: run_lapw
 Flat Integration
 New Mode for Coulomb Integral
 Consistent 3/8+Simpson combinations
 Extension of core to zero
 LDM version in phi
 Fifth-order quadrature in outwin


            ---------
:ITE001:  1. ITERATION
            ---------

:NATO :    2 INDEPENDENT AND    9 TOTAL ATOMS IN UNITCELL
       SUBSTANCE: SiO2 for tests                                              

       LATTICE                      = H   
:POT  : POTENTIAL OPTION EX_PBE EC_PBE VX_PBE VC_PBE
:LAT  : LATTICE CONSTANTS=  9.26193  9.26193 10.21737
:VOL  : UNIT CELL VOLUME =     759.05354
       MODE OF CALCULATION IS       = RELA
       NON-SPINPOLARIZED CALCULATION
:IFFT  : FFT-parameters:   72   72   80 Factor: 2.00


   CONVERGENCE PARAMETER FOR PSEUDOCHARGE: NCON=  9
   MAXIMAL VALUE OF RMT(JATOM)*ABSK(NKK) : RK  =19.43469


:VKCOUL :  VK-COUL convergence: 0.439E-05
       ATOMNUMBER=  1 Si         VCOUL-ZERO = -0.14366E+01
:EFG001:                        EFG         =     0.02023   *10**21  V / m**2
                               V20  TOT/SRF=    -0.01366    -0.01576
                               V22  TOT/SRF=     0.00026     0.00378
                               V22M TOT/SRF=    -0.01234    -0.02031
                               V21  TOT/SRF=     0.00000     0.00000
                               V21M TOT/SRF=     0.00000     0.00000

              0.00815   -0.01234    0.00000        0.02023    0.00000    0.00000
             -0.01234    0.00762    0.00000        0.00000   -0.00446    0.00000
              0.00000    0.00000   -0.01577        0.00000    0.00000   -0.01577

         MAIN DIRECTIONS OF THE EFG   1.0000  0.9788  0.0000
                                     -0.9788  1.0000  0.0000
                                      0.0000  0.0000  1.0000
:ANG001:  ANGLE WITH OLD X-AXIS =        44.4

:ETA001:                         ASYMM. ETA =     0.55936


       ATOMNUMBER=  2 O          VCOUL-ZERO = -0.80426E-01
:EFG002:                        EFG         =     2.34022   *10**21  V / m**2
                               V20  TOT/SRF=     0.01775     0.02253
                               V22  TOT/SRF=     0.46621     0.58167
                               V22M TOT/SRF=    -1.03110    -1.28760
                               V21  TOT/SRF=    -1.27074    -1.58634
                               V21M TOT/SRF=     1.11976     1.39844

              0.45596   -1.03110   -1.27074        2.34022    0.00000    0.00000
             -1.03110   -0.47646    1.11976        0.00000   -0.96512    0.00000
             -1.27074    1.11976    0.02049        0.00000    0.00000   -1.37510

         MAIN DIRECTIONS OF THE EFG   1.0000  1.0000  0.0171
                                     -0.7225  0.5266  1.0000
                                     -0.8966  0.6910 -0.7868
:ANG002:  ANGLE WITH OLD X-AXIS =        45.0

:ETA002:                         ASYMM. ETA =     0.17519


     HELLMANN-FEYNMAN-FORCE IN mRy/a.u. = |F|  Fx       Fy             Fz
:FHF001:   1.ATOM      0.660338428314      0.000000000000      0.000000000000     -0.660338428314

     HELLMANN-FEYNMAN-FORCE IN mRy/a.u. = |F|  Fx       Fy             Fz
:FHF002:   2.ATOM   1081.743219788848   -835.469666171216   -428.244727353585   -537.368852801085

:FIT001: LUSE= 13 SIGMA OF V-XC FIT FOR ATOM  1  0.7083896E-02
:FIT001: LUSE= 13 SIGMA OF V-XC FIT FOR ATOM  1  0.7083896E-02
:FIT002: LUSE= 13 SIGMA OF V-XC FIT FOR ATOM  2  0.1340515E-02
:FIT002: LUSE= 13 SIGMA OF V-XC FIT FOR ATOM  2  0.1340515E-02
:DEN  : DENSITY INTEGRAL  =         -1213.65209575   (Ry)
       ELS_POTENTIAL_AT Z=0 and Z=0.5:   0.04924  -0.09870
       ELS_POTENTIAL_AT Y=0 and Y=0.5:   0.00000   0.00000
:VZERO:v0,v0c,v0x  -0.68174   0.04924  -0.73098 v5,v5c,v5x  -0.78851  -0.09870  -0.68981
:VZERY:v0,v0c,v0x  -0.70684   0.00000  -0.70684 v5,v5c,v5x  -0.70684   0.00000  -0.70684
:VZERX:v0,v0c,v0x  -0.19278   0.24115  -0.43394 v5,v5c,v5x  -2.60401  -1.66125  -0.94276
:LMAX-WF:   10   Non-Spherical LMAX:   4

          ATOMIC SPHERE DEPENDENT PARAMETERS FOR ATOM  Si        
:e__0001: OVERALL ENERGY PARAMETER IS    0.3000
          OVERALL BASIS SET ON ATOM IS LAPW
:E0_0001: E( 0)=    0.3000
             APW+lo
:E1_0001: E( 1)=    0.3000
             APW+lo

          ATOMIC SPHERE DEPENDENT PARAMETERS FOR ATOM  O         
:e__0002: OVERALL ENERGY PARAMETER IS    0.3000
          OVERALL BASIS SET ON ATOM IS LAPW
:E0_0002: E( 0)=    0.7000
             APW+lo
:E0_0002: E( 0)=   -1.3125   E(BOTTOM)=   -2.596   E(TOP)=   -0.029  1  2   227
             LOCAL ORBITAL
:E1_0002: E( 1)=    0.3000
             APW+lo

       K=   0.00000   0.00000   0.00000            1
:RKM  : MATRIX SIZE  1625LOs:  42  RKM= 6.97  WEIGHT= 1.00  PGR:    
       EIGENVALUES ARE:
:EIG00001:      -1.5337335   -1.4411529   -1.4411529   -1.4032324   -1.4020544
:EIG00006:      -1.4020544   -0.6733388   -0.6733388   -0.4965059   -0.4916903
:EIG00011:      -0.4798361   -0.4798361   -0.3064939   -0.3064939   -0.2950819
:EIG00016:      -0.2783848   -0.2312958   -0.2312958   -0.2287494   -0.1966308
:EIG00021:      -0.1966308   -0.1787817   -0.1550107   -0.1550107    0.4492100
:EIG00026:       0.7232531    0.7232531    0.7386762    0.7386762    0.8434397
:EIG00031:       0.8529819    0.9179382    0.9299848    0.9299849    0.9516003
:EIG00036:       0.9516004    1.0301086    1.1219674    1.1340356    1.1340356
:EIG00041:       1.1492873    1.1492873    1.2637802    1.2637802    1.3567079
:EIG00046:       1.4031372    1.4031372    1.5191633    1.5191633    1.6021189
 
:EIG00051:       1.6103445    1.6103445    1.6767738    1.8027086    1.8027086
:EIG00056:       1.8145228    1.8885771    1.9014355    1.9014355    1.9311295
:EIG00061:       1.9986548    1.9986548
       ********************************************************

:KPT   :      NUMBER OF K-POINTS:    94
       Insulator, EF-inconsistency corrected
:GAP (global)   :  0.589871 Ry =     8.026 eV (accurate value if proper k-mesh)
         Bandranges (emin - emax) and occupancy:
:BAN00014:  14   -0.319485   -0.291286  2.00000000
:BAN00015:  15   -0.298144   -0.280148  2.00000000
:BAN00016:  16   -0.281269   -0.255186  2.00000000
:BAN00017:  17   -0.264937   -0.231296  2.00000000
:BAN00018:  18   -0.249018   -0.226494  2.00000000
:BAN00019:  19   -0.246308   -0.198169  2.00000000
:BAN00020:  20   -0.227180   -0.195980  2.00000000
:BAN00021:  21   -0.208875   -0.188640  2.00000000
:BAN00022:  22   -0.189077   -0.152528  2.00000000
:BAN00023:  23   -0.176004   -0.146506  2.00000000
:BAN00024:  24   -0.167259   -0.140661  2.00000000
:BAN00025:  25    0.449210    0.653413  0.00000000
:BAN00026:  26    0.573090    0.723253  0.00000000
:BAN00027:  27    0.691184    0.744990  0.00000000
:BAN00028:  28    0.732346    0.785103  0.00000000
:BAN00029:  29    0.738676    0.800058  0.00000000
        Energy to separate low and high energystates:   -0.78952


:NOE  : NUMBER OF ELECTRONS          =   48.000

:FER  : F E R M I - ENERGY(TETRAH.M.)=  -0.1406610888
:GMA  : POTENTIAL AND CHARGE CUT-OFF  12.00 Ry**.5

:POS001: ATOM   -1 X,Y,Z = 0.46913 0.46913 0.50000  MULT= 3  ZZ= 14.000  Si        

       LMMAX 25
       LM=   0 0  1 0  2 0  2 2 -2 2  3 0  3 2 -3 2  4 0  4 2 -4 2  4 4 -4 4  5 0  5 2 -5 2  5 4
        -5 4  6 0  6 2 -6 2  6 4 -6 4  6 6 -6 6

:CHA001: TOTAL VALENCE CHARGE INSIDE SPHERE   1 =   0.4683    (RMT=  1.4000 )
:PCS001: PARTIAL CHARGES SPHERE =  1 S,P,D,F,PX,PY,PZ,D-Z2,D-X2Y2,D-XY,D-XZ,D-YZ 
:QTL001: 0.1631 0.2089 0.0866 0.0081 0.0703 0.0707 0.0679 0.0096 0.0134 0.0193 0.0225 0.0219
        Q-s-low E-s-low   Q-p-low E-p-low   Q-d-low E-d-low   Q-f-low E-f-low
:EPL001:  0.0426 -1.4842    0.0400 -1.4191    0.0132 -1.4190    0.0017 -1.4569
        Q-s-hi  E-s-hi    Q-p-hi  E-p-hi    Q-d-hi  E-d-hi    Q-f-hi  E-f-hi 
:EPH001:  0.1205 -0.6142    0.1690 -0.4687    0.0734 -0.3427    0.0064 -0.3281

                      QXX         QXY         QYY         QZZ       UP TO R
:VZZ001:            -0.21895     0.19225    -0.34951     0.56846       1.400

:POS002: ATOM   -2 X,Y,Z = 0.14451 0.41337 0.61807  MULT= 6  ZZ=  8.000  O         

       LMMAX 49

:CHA002: TOTAL VALENCE CHARGE INSIDE SPHERE   2 =   5.8956    (RMT=  1.6200 )
:PCS002: PARTIAL CHARGES SPHERE =  2 S,P,D,F,PX,PY,PZ,D-Z2,D-X2Y2,D-XY,D-XZ,D-YZ 
:QTL002: 1.6326 4.2473 0.0117 0.0037 1.4066 1.4260 1.4146 0.0019 0.0026 0.0021 0.0025 0.0026
        Q-s-low E-s-low   Q-p-low E-p-low   Q-d-low E-d-low   Q-f-low E-f-low
:EPL002:  1.5782 -1.4366    0.0179 -1.4457    0.0035 -1.4453    0.0003 -1.4392
        Q-s-hi  E-s-hi    Q-p-hi  E-p-hi    Q-d-hi  E-d-hi    Q-f-hi  E-f-hi 
:EPH002:  0.0543 -0.3922    4.2294 -0.3245    0.0082 -0.4097    0.0034 -0.3893

                      QXX         QXY         QYY         QZZ       UP TO R
:VZZ002:             1.25737    -2.79218    -1.38035     0.12298       1.620

:CHA  : TOTAL VALENCE CHARGE INSIDE UNIT CELL =      48.000000

:SUM  : SUM OF EIGENVALUES =         -29.385396961


        1.ATOM      Si                    4 CORE STATES
       CORE-FORCE in mRy/a.u. = |F|      Fx             Fy             Fz
:FCO001:   1.ATOM      1.783675543869      0.000000000000      0.000000000000     -1.783675543869

:1S 001: 1S                -130.525094101 Ry
:2S 001: 2S                  -9.542215991 Ry
:2PP001: 2P*                 -6.344054225 Ry
:2P 001: 2P                  -6.296687983 Ry

        2.ATOM      O                     1 CORE STATES
       CORE-FORCE in mRy/a.u. = |F|      Fx             Fy             Fz
:FCO002:   2.ATOM    276.523919606015    213.560191266678    109.476952742167    137.376561460472

:1S 002: 1S                 -37.323263231 Ry
:CINT001 Core Integral Atom   1    9.921255
:CINT002 Core Integral Atom   2    2.003890

       DENSITY AT NUCLEUS
        JATOM        VALENCE       SEMI-CORE          CORE           TOTAL
:RTO001:   1        4.830668     1885.991394        0.000000     1890.822061
:RTO002:   2       15.670298      303.971913        0.000000      319.642211
     
       CHARGES OF NEW CHARGE DENSITY
:NTO   : INTERSTITIAL CHARGE =    11.434840
:NPC   : PW Pseudocharge     =    27.022004
:NTO001: CHARGE SPHERE  1    =    10.389533
:NTO002: CHARGE SPHERE  2    =     7.899524

:NEC01: NUCLEAR AND ELECTRONIC CHARGE     90.00000    90.00058
     
       CHARGES OF OLD CHARGE DENSITY
:OTO   : INTERSTITIAL CHARGE =    15.689680
:OPC   : PW Pseudocharge     =    23.640838
:OTO001: CHARGE SPHERE  1    =    10.610239
:OTO002: CHARGE SPHERE  2    =     7.080276

:NEC02: NUCLEAR AND ELECTRONIC CHARGE     90.00000    90.00205
     
       CONVERGENCE TEST
:DTO001: DIFFERENCE IN SPHERE  1 =  0.3177863
:DTO002: DIFFERENCE IN SPHERE  2 =  0.9569999

:DIS  :  CHARGE DISTANCE       ( 0.9569999 for atom    2 spin 1)      0.7439287
 PW Mixed is         2149
 
******************************************************
* MULTISECANT MIXING VER9 RELEASE 10.4.0              *
* Standard Mode with controls                        *
* Fixed density scale                                *
* Regularization       1.000E-04                     *
* Trust Upper Limit    5.000E+00                     *
* Max Number of Memory Steps    8                    *
******************************************************
 
:PWTMP   6.1772E+02  5.7600E+02  7.5905E+02
:PLANE:  PW TOTAL      7.1397 DISTAN   2.36E+00  3.31E+01 %
:CHARG:  CLM/ATOM     80.8997 DISTAN   1.23E+00  1.52E+00 %
 
Step History
        DMIX         DMIXT        Red     Pred      Trust     Lambda    MagRel    MagAbs     Beta
  1   3.5000E-02   3.5000E-02 -1.00E+00  1.00E+00 -1.00E+01  1.00E+00  3.50E-02  3.50E-02  1.00E+00
:INFO :  Note, Pratt in use
:TRUST:  Step 5.25E-02  Charge 7.50E-02 (e) CTO  2.69E-01 (e) PW  3.77E-01 (e)
:DIRM :  MEMORY  0/ 8 SCALE   1.000
Performing Pseudo Compensation
Final Pseudo Compensation Rescaling     9.99810E-01
:MIX  :   PRATT  REGULARIZATION:  1.00E-04 GREED: 0.03500                  
     
       CHARGES OF MIXED CHARGE DENSITY
:CTO   : INTERSTITIAL CHARGE =    15.538759
:CPC   : PW Pseudocharge     =    25.867519
:CTO001: CHARGE SPHERE  1    =    10.602514
:CTO002: CHARGE SPHERE  2    =     7.108950

:NEC03: NUCLEAR AND ELECTRONIC CHARGE     90.00000    90.00000

PW CHANGE     H    K    L             Current                    Change               Residue
:PTO001:      0    0    0  5.45498774E-02 0.00000000E+00  2.741E-03  0.000E+00 -1.147E-03  0.000E+00
:PTO002:      0    0   -1 -7.90180214E-10-8.32754586E-20  2.681E-11 -8.328E-20  7.660E-10  0.000E+00
:PTO003:     -1    0    0 -3.92157469E-02 0.00000000E+00 -4.210E-04  0.000E+00  1.931E-03  0.000E+00
:PTO004:     -1    0   -1  4.40685026E-02-7.63288833E-02  1.453E-03 -2.516E-03  1.418E-03 -2.456E-03
:PTO005:     -1    0    1  2.65813082E-02 4.60401754E-02  3.524E-04  6.104E-04 -9.245E-06 -1.601E-05
:PTO006:      0    0   -2 -3.63891296E-10 1.49593270E-19 -3.137E-11  1.496E-19  2.510E-10  0.000E+00
:PTO007:     -2    1    0 -1.55789315E-02-2.17785739E-02 -1.012E-03 -4.922E-03 -1.721E-03 -8.289E-03
:PTO008:     -1   -1    0 -1.55789315E-02 2.17785739E-02 -1.012E-03  4.922E-03 -1.721E-03  8.289E-03
:PTO009:     -1    0   -2  3.48002609E-02 6.02758223E-02  8.663E-03  1.500E-02  1.435E-02  2.485E-02
:PTO010:     -1    0    2 -2.92318742E-04 5.06309956E-04  3.316E-03 -5.743E-03  4.915E-03 -8.513E-03
:PTO011:     -2    1   -1 -4.28041649E-02-2.22246058E-02 -1.011E-02 -9.008E-03 -1.735E-02 -1.388E-02
:PTO012:     -1   -1   -1  4.06491550E-02 2.59571919E-02  1.285E-02  4.248E-03  2.070E-02  8.089E-03

:ENE  : ********** TOTAL ENERGY IN Ry =        -2644.94509318

       TOTAL FORCE IN mRy/a.u. = |F|     Fx             Fy             Fz     with/without FOR in case.in2
:FOR001:   1.ATOM          2.444          0.000          0.000         -2.444 partial forces
:FOR002:   2.ATOM        805.219       -621.909       -318.768       -399.992 partial forces
       TOTAL FORCE WITH RESPECT TO GLOBAL CARTESIAN COORDINATES:
:FCA001:   1.ATOM                        -2.117         -1.222          0.000 partial forces
:FCA002:   2.ATOM                      -621.909       -318.768       -399.992 partial forces
       TOTAL FORCE WITH RESPECT TO THE GLOBAL COORDINATE SYSTEM:
:FGL001:   1.ATOM                -2.444013972    -2.444013972     0.000000000 partial forces
:FGL002:   2.ATOM              -718.119205495  -677.827377359  -399.992291341 partial forces
 Flat Integration
 New Mode for Coulomb Integral
 Consistent 3/8+Simpson combinations
 Extension of core to zero
 LDM version in phi
 Fifth-order quadrature in outwin


            ---------
:ITE002:  2. ITERATION
            ---------

:NATO :    2 INDEPENDENT AND    9 TOTAL ATOMS IN UNITCELL
       SUBSTANCE: SiO2 for tests                                              

       LATTICE                      = H   
:POT  : POTENTIAL OPTION EX_PBE EC_PBE VX_PBE VC_PBE
:LAT  : LATTICE CONSTANTS=  9.26193  9.26193 10.21737
:VOL  : UNIT CELL VOLUME =     759.05354
       MODE OF CALCULATION IS       = RELA
       NON-SPINPOLARIZED CALCULATION
:IFFT  : FFT-parameters:   72   72   80 Factor: 2.00


   CONVERGENCE PARAMETER FOR PSEUDOCHARGE: NCON=  9
   MAXIMAL VALUE OF RMT(JATOM)*ABSK(NKK) : RK  =19.43469


:VKCOUL :  VK-COUL convergence: 0.349E-05
       ATOMNUMBER=  1 Si         VCOUL-ZERO = -0.14345E+01
:EFG001:                        EFG         =    -0.00754   *10**21  V / m**2
                               V20  TOT/SRF=     0.00330    -0.01556
                               V22  TOT/SRF=     0.00175     0.00286
                               V22M TOT/SRF=    -0.00536    -0.01952
                               V21  TOT/SRF=     0.00000     0.00000
                               V21M TOT/SRF=     0.00000     0.00000

             -0.00016   -0.00536    0.00000        0.00373    0.00000    0.00000
             -0.00536   -0.00365    0.00000        0.00000   -0.00754    0.00000
              0.00000    0.00000    0.00381        0.00000    0.00000    0.00381

         MAIN DIRECTIONS OF THE EFG   1.0000  0.7261  0.0000
                                     -0.7261  1.0000  0.0000
                                      0.0000  0.0000  1.0000
:ANG001:  ANGLE WITH OLD X-AXIS =        36.0

:ETA001:                         ASYMM. ETA =     0.01023


       ATOMNUMBER=  2 O          VCOUL-ZERO = -0.67619E-01
:EFG002:                        EFG         =     2.60460   *10**21  V / m**2
                               V20  TOT/SRF=     0.02198     0.02280
                               V22  TOT/SRF=     0.51977     0.58293
                               V22M TOT/SRF=    -1.14425    -1.28935
                               V21  TOT/SRF=    -1.41362    -1.58829
                               V21M TOT/SRF=     1.25051     1.39987

              0.50708   -1.14425   -1.41362        2.60460    0.00000    0.00000
             -1.14425   -0.53246    1.25051        0.00000   -1.06971    0.00000
             -1.41362    1.25051    0.02538        0.00000    0.00000   -1.53489

         MAIN DIRECTIONS OF THE EFG   1.0000  1.0000  0.0148
                                     -0.7230  0.5277  1.0000
                                     -0.8986  0.6883 -0.7881
:ANG002:  ANGLE WITH OLD X-AXIS =        45.0

:ETA002:                         ASYMM. ETA =     0.17860


     HELLMANN-FEYNMAN-FORCE IN mRy/a.u. = |F|  Fx       Fy             Fz
:FHF001:   1.ATOM      2.491810826881      0.000000000000      0.000000000000     -2.491810826881

     HELLMANN-FEYNMAN-FORCE IN mRy/a.u. = |F|  Fx       Fy             Fz
:FHF002:   2.ATOM   1066.196243751498   -822.867440927548   -424.120205664544   -528.947687392823

:FIT001: LUSE= 13 SIGMA OF V-XC FIT FOR ATOM  1  0.7524950E-02
:FIT001: LUSE= 13 SIGMA OF V-XC FIT FOR ATOM  1  0.7524950E-02
:FIT002: LUSE= 13 SIGMA OF V-XC FIT FOR ATOM  2  0.1302217E-02
:FIT002: LUSE= 13 SIGMA OF V-XC FIT FOR ATOM  2  0.1302217E-02
:DEN  : DENSITY INTEGRAL  =         -1215.13490678   (Ry)
       ELS_POTENTIAL_AT Z=0 and Z=0.5:   0.04459  -0.08848
       ELS_POTENTIAL_AT Y=0 and Y=0.5:   0.00000   0.00000
:VZERO:v0,v0c,v0x  -0.69404   0.04459  -0.73863 v5,v5c,v5x  -0.76526  -0.08848  -0.67678
:VZERY:v0,v0c,v0x  -0.70670   0.00000  -0.70670 v5,v5c,v5x  -0.70670   0.00000  -0.70670
:VZERX:v0,v0c,v0x  -0.13511   0.26832  -0.40343 v5,v5c,v5x  -2.54919  -1.63690  -0.91229
:LMAX-WF:   10   Non-Spherical LMAX:   4

          ATOMIC SPHERE DEPENDENT PARAMETERS FOR ATOM  Si        
:e__0001: OVERALL ENERGY PARAMETER IS    0.1000
          OVERALL BASIS SET ON ATOM IS LAPW
:E0_0001: E( 0)=    0.1000
             APW+lo
:E1_0001: E( 1)=    0.1000
             APW+lo

          ATOMIC SPHERE DEPENDENT PARAMETERS FOR ATOM  O         
:e__0002: OVERALL ENERGY PARAMETER IS    0.1000
          OVERALL BASIS SET ON ATOM IS LAPW
:E0_0002: E( 0)=    0.5000
             APW+lo
:E0_0002: E( 0)=   -1.2840   E(BOTTOM)=   -2.572   E(TOP)=    0.004  1  2   233
             LOCAL ORBITAL
:E1_0002: E( 1)=    0.1000
             APW+lo

       K=   0.00000   0.00000   0.00000            1
:RKM  : MATRIX SIZE  1625LOs:  42  RKM= 6.97  WEIGHT= 1.00  PGR:    
       EIGENVALUES ARE:
:EIG00001:      -1.5114709   -1.4171234   -1.4171234   -1.3783389   -1.3770500
:EIG00006:      -1.3770500   -0.6547212   -0.6547212   -0.4744239   -0.4701960
:EIG00011:      -0.4580383   -0.4580383   -0.2848574   -0.2848574   -0.2728043
:EIG00016:      -0.2559535   -0.2070157   -0.2070157   -0.2046276   -0.1720145
:EIG00021:      -0.1720145   -0.1537961   -0.1295853   -0.1295853    0.4601061
:EIG00026:       0.7315635    0.7315635    0.7482349    0.7482349    0.8561538
:EIG00031:       0.8606452    0.9281275    0.9426382    0.9426382    0.9651452
:EIG00036:       0.9651452    1.0422603    1.1326041    1.1433049    1.1433049
:EIG00041:       1.1576115    1.1576115    1.2728847    1.2728847    1.3655565
:EIG00046:       1.4127591    1.4127591    1.5274854    1.5274854    1.6083272
 
:EIG00051:       1.6182035    1.6182035    1.6851217
       ********************************************************

:KPT   :      NUMBER OF K-POINTS:    94
       Insulator, EF-inconsistency corrected
:GAP (global)   :  0.574697 Ry =     7.819 eV (accurate value if proper k-mesh)
         Bandranges (emin - emax) and occupancy:
:BAN00014:  14   -0.298413   -0.268967  2.00000000
:BAN00015:  15   -0.276648   -0.257457  2.00000000
:BAN00016:  16   -0.258666   -0.231791  2.00000000
:BAN00017:  17   -0.241862   -0.207016  2.00000000
:BAN00018:  18   -0.225638   -0.202565  2.00000000
:BAN00019:  19   -0.222948   -0.173503  2.00000000
:BAN00020:  20   -0.203347   -0.171367  2.00000000
:BAN00021:  21   -0.184533   -0.163864  2.00000000
:BAN00022:  22   -0.164233   -0.126801  2.00000000
:BAN00023:  23   -0.150935   -0.120605  2.00000000
:BAN00024:  24   -0.142068   -0.114591  2.00000000
:BAN00025:  25    0.460106    0.665298  0.00000000
:BAN00026:  26    0.585697    0.731563  0.00000000
:BAN00027:  27    0.703160    0.754601  0.00000000
:BAN00028:  28    0.740069    0.794974  0.00000000
:BAN00029:  29    0.748235    0.809949  0.00000000
        Energy to separate low and high energystates:   -0.77228


:NOE  : NUMBER OF ELECTRONS          =   48.000

:FER  : F E R M I - ENERGY(TETRAH.M.)=  -0.1145913104
:GMA  : POTENTIAL AND CHARGE CUT-OFF  12.00 Ry**.5

:POS001: ATOM   -1 X,Y,Z = 0.46913 0.46913 0.50000  MULT= 3  ZZ= 14.000  Si        

       LMMAX 25
       LM=   0 0  1 0  2 0  2 2 -2 2  3 0  3 2 -3 2  4 0  4 2 -4 2  4 4 -4 4  5 0  5 2 -5 2  5 4
        -5 4  6 0  6 2 -6 2  6 4 -6 4  6 6 -6 6

:CHA001: TOTAL VALENCE CHARGE INSIDE SPHERE   1 =   0.4783    (RMT=  1.4000 )
:PCS001: PARTIAL CHARGES SPHERE =  1 S,P,D,F,PX,PY,PZ,D-Z2,D-X2Y2,D-XY,D-XZ,D-YZ 
:QTL001: 0.1666 0.2138 0.0882 0.0081 0.0719 0.0724 0.0695 0.0098 0.0137 0.0197 0.0228 0.0222
        Q-s-low E-s-low   Q-p-low E-p-low   Q-d-low E-d-low   Q-f-low E-f-low
:EPL001:  0.0437 -1.4609    0.0408 -1.3944    0.0133 -1.3944    0.0017 -1.4330
        Q-s-hi  E-s-hi    Q-p-hi  E-p-hi    Q-d-hi  E-d-hi    Q-f-hi  E-f-hi 
:EPH001:  0.1228 -0.5944    0.1730 -0.4466    0.0750 -0.3178    0.0065 -0.3020

                      QXX         QXY         QYY         QZZ       UP TO R
:VZZ001:            -0.22120     0.19311    -0.36951     0.59071       1.400

:POS002: ATOM   -2 X,Y,Z = 0.14451 0.41337 0.61807  MULT= 6  ZZ=  8.000  O         

       LMMAX 49

:CHA002: TOTAL VALENCE CHARGE INSIDE SPHERE   2 =   5.8586    (RMT=  1.6200 )
:PCS002: PARTIAL CHARGES SPHERE =  2 S,P,D,F,PX,PY,PZ,D-Z2,D-X2Y2,D-XY,D-XZ,D-YZ 
:QTL002: 1.6286 4.2139 0.0120 0.0037 1.3956 1.4147 1.4035 0.0019 0.0027 0.0021 0.0026 0.0027
        Q-s-low E-s-low   Q-p-low E-p-low   Q-d-low E-d-low   Q-f-low E-f-low
:EPL002:  1.5723 -1.4124    0.0182 -1.4218    0.0036 -1.4213    0.0003 -1.4151
        Q-s-hi  E-s-hi    Q-p-hi  E-p-hi    Q-d-hi  E-d-hi    Q-f-hi  E-f-hi 
:EPH002:  0.0562 -0.3717    4.1957 -0.3013    0.0084 -0.3862    0.0034 -0.3665

                      QXX         QXY         QYY         QZZ       UP TO R
:VZZ002:             1.21185    -2.68193    -1.33455     0.12270       1.620

:CHA  : TOTAL VALENCE CHARGE INSIDE UNIT CELL =      48.000000

:SUM  : SUM OF EIGENVALUES =         -28.275876758


        1.ATOM      Si                    4 CORE STATES
       CORE-FORCE in mRy/a.u. = |F|      Fx             Fy             Fz
:FCO001:   1.ATOM      0.444991032743      0.000000000000      0.000000000000     -0.444991032743

:1S 001: 1S                -130.531922166 Ry
:2S 001: 2S                  -9.545141635 Ry
:2PP001: 2P*                 -6.347211447 Ry
:2P 001: 2P                  -6.299827359 Ry

        2.ATOM      O                     1 CORE STATES
       CORE-FORCE in mRy/a.u. = |F|      Fx             Fy             Fz
:FCO002:   2.ATOM    280.829401038168    216.662194927592    111.739378855625    139.416487509812

:1S 002: 1S                 -37.273205112 Ry
:CINT001 Core Integral Atom   1    9.921473
:CINT002 Core Integral Atom   2    2.003877

       DENSITY AT NUCLEUS
        JATOM        VALENCE       SEMI-CORE          CORE           TOTAL
:RTO001:   1        4.956855     1886.033454        0.000000     1890.990309
:RTO002:   2       15.571695      303.953633        0.000000      319.525328
     
       CHARGES OF NEW CHARGE DENSITY
:NTO   : INTERSTITIAL CHARGE =    11.626608
:NPC   : PW Pseudocharge     =    27.040243
:NTO001: CHARGE SPHERE  1    =    10.399738
:NTO002: CHARGE SPHERE  2    =     7.862461

:NEC01: NUCLEAR AND ELECTRONIC CHARGE     90.00000    90.00059
     
       CHARGES OF OLD CHARGE DENSITY
:OTO   : INTERSTITIAL CHARGE =    15.538759
:OPC   : PW Pseudocharge     =    25.867519
:OTO001: CHARGE SPHERE  1    =    10.602514
:OTO002: CHARGE SPHERE  2    =     7.108950

:NEC02: NUCLEAR AND ELECTRONIC CHARGE     90.00000    90.00000
     
       CONVERGENCE TEST
:DTO001: DIFFERENCE IN SPHERE  1 =  0.2897081
:DTO002: DIFFERENCE IN SPHERE  2 =  0.8830630

:DIS  :  CHARGE DISTANCE       ( 0.8830630 for atom    2 spin 1)      0.6852781
 PW Mixed is         2149
 
******************************************************
* MULTISECANT MIXING VER9 RELEASE 10.4.0              *
* Standard Mode with controls                        *
* Fixed density scale                                *
* Regularization       1.000E-04                     *
* Trust Upper Limit    5.000E+00                     *
* Max Number of Memory Steps    8                    *
******************************************************
 
:PWTMP   6.1772E+02  5.7600E+02  7.5905E+02
:PLANE:  PW TOTAL      8.1601 DISTAN   1.00E+00  1.23E+01 %
:CHARG:  CLM/ATOM     80.8981 DISTAN   1.13E+00  1.40E+00 %
 
Step History
        DMIX         DMIXT        Red     Pred      Trust     Lambda    MagRel    MagAbs     Beta
  1   3.5000E-02   3.5000E-02 -1.00E+00  1.00E+00 -1.00E+01  1.00E+00  3.50E-02  3.50E-02  1.00E+00
  2   3.5000E-02   3.5000E-02 -1.00E+00  1.00E+00 -1.00E+01  1.00E+00  3.50E-02  1.19E-01  1.00E+00
:JACOBIANS    4.889E-01   2.719E-03
  
:TRUST:  Step 5.98E-02  Charge 7.50E-02 (e) CTO  2.69E-01 (e) PW  3.77E-01 (e)
:DIRM :  MEMORY  1/ 8 SCALE   1.000
:MIX  :   PRATT  REGULARIZATION:  1.00E-04 GREED: 0.05982  Expand 1.71  0.0598                
     
       CHARGES OF MIXED CHARGE DENSITY
:CTO   : INTERSTITIAL CHARGE =    15.477875
:CPC   : PW Pseudocharge     =    26.779440
:CTO001: CHARGE SPHERE  1    =    10.599355
:CTO002: CHARGE SPHERE  2    =     7.120677

:NEC03: NUCLEAR AND ELECTRONIC CHARGE     90.00000    90.00000

PW CHANGE     H    K    L             Current                    Change               Residue
:PTO001:      0    0    0  5.56710604E-02 0.00000000E+00  1.121E-03  0.000E+00 -3.612E-03  0.000E+00
:PTO002:      0    0   -1 -7.79215301E-10 0.00000000E+00  1.096E-11  0.000E+00  7.393E-10  0.000E+00
:PTO003:     -1    0    0 -3.93879359E-02 0.00000000E+00 -1.722E-04  0.000E+00  2.128E-03  0.000E+00
:PTO004:     -1    0   -1  4.46626223E-02-7.73579292E-02  5.941E-04 -1.029E-03  1.020E-04 -1.767E-04
:PTO005:     -1    0    1  2.67254287E-02 4.62897993E-02  1.441E-04  2.496E-04 -2.579E-04 -4.467E-04
:PTO006:      0    0   -2 -3.76721028E-10 0.00000000E+00 -1.283E-11  0.000E+00  2.825E-10  0.000E+00
:PTO007:     -2    1    0 -1.59927299E-02-2.37917470E-02 -4.138E-04 -2.013E-03 -6.972E-04 -3.302E-03
:PTO008:     -1   -1    0 -1.59927299E-02 2.37917470E-02 -4.138E-04  2.013E-03 -6.972E-04  3.302E-03
:PTO009:     -1    0   -2  3.83432370E-02 6.64124378E-02  3.543E-03  6.137E-03  5.559E-03  9.629E-03
:PTO010:     -1    0    2  1.06364183E-03-1.84228178E-03  1.356E-03 -2.349E-03  1.561E-03 -2.703E-03
:PTO011:     -2    1   -1 -4.69373141E-02-2.59085821E-02 -4.133E-03 -3.684E-03 -7.112E-03 -4.742E-03
:PTO012:     -1   -1   -1  4.59061467E-02 2.76946163E-02  5.257E-03  1.737E-03  7.662E-03  3.788E-03

:ENE  : ********** TOTAL ENERGY IN Ry =        -2644.83282468

       TOTAL FORCE IN mRy/a.u. = |F|     Fx             Fy             Fz     with/without FOR in case.in2
:FOR001:   1.ATOM          2.937          0.000          0.000         -2.937 partial forces
:FOR002:   2.ATOM        785.367       -606.205       -312.381       -389.531 partial forces
       TOTAL FORCE WITH RESPECT TO GLOBAL CARTESIAN COORDINATES:
:FCA001:   1.ATOM                        -2.543         -1.468          0.000 partial forces
:FCA002:   2.ATOM                      -606.205       -312.381       -389.531 partial forces
       TOTAL FORCE WITH RESPECT TO THE GLOBAL COORDINATE SYSTEM:
:FGL001:   1.ATOM                -2.936801860    -2.936801860     0.000000000 partial forces
:FGL002:   2.ATOM              -699.985523924  -662.373588771  -389.531199883 partial forces
 Flat Integration
 New Mode for Coulomb Integral
 Consistent 3/8+Simpson combinations
 Extension of core to zero
 LDM version in phi
 Fifth-order quadrature in outwin


            ---------
:ITE003:  3. ITERATION
            ---------

:NATO :    2 INDEPENDENT AND    9 TOTAL ATOMS IN UNITCELL
       SUBSTANCE: SiO2 for tests                                              

       LATTICE                      = H   
:POT  : POTENTIAL OPTION EX_PBE EC_PBE VX_PBE VC_PBE
:LAT  : LATTICE CONSTANTS=  9.26193  9.26193 10.21737
:VOL  : UNIT CELL VOLUME =     759.05354
       MODE OF CALCULATION IS       = RELA
       NON-SPINPOLARIZED CALCULATION
:IFFT  : FFT-parameters:   72   72   80 Factor: 2.00


   CONVERGENCE PARAMETER FOR PSEUDOCHARGE: NCON=  9
   MAXIMAL VALUE OF RMT(JATOM)*ABSK(NKK) : RK  =19.43469


:VKCOUL :  VK-COUL convergence: 0.340E-05
       ATOMNUMBER=  1 Si         VCOUL-ZERO = -0.14337E+01
:EFG001:                        EFG         =     0.01182   *10**21  V / m**2
                               V20  TOT/SRF=     0.01024    -0.01548
                               V22  TOT/SRF=     0.00235     0.00248
                               V22M TOT/SRF=    -0.00251    -0.01920
                               V21  TOT/SRF=     0.00000     0.00000
                               V21M TOT/SRF=     0.00000     0.00000

             -0.00356   -0.00251    0.00000       -0.00247    0.00000    0.00000
             -0.00251   -0.00826    0.00000        0.00000   -0.00935    0.00000
              0.00000    0.00000    0.01182        0.00000    0.00000    0.01182

         MAIN DIRECTIONS OF THE EFG   1.0000  0.4333  0.0000
                                     -0.4333  1.0000  0.0000
                                      0.0000  0.0000  1.0000
:ANG001:  ANGLE WITH OLD X-AXIS =        23.4

:ETA001:                         ASYMM. ETA =     0.58141


       ATOMNUMBER=  2 O          VCOUL-ZERO = -0.62390E-01
:EFG002:                        EFG         =     2.71293   *10**21  V / m**2
                               V20  TOT/SRF=     0.02371     0.02291
                               V22  TOT/SRF=     0.54172     0.58348
                               V22M TOT/SRF=    -1.19061    -1.29016
                               V21  TOT/SRF=    -1.47216    -1.58919
                               V21M TOT/SRF=     1.30409     1.40056

              0.52803   -1.19061   -1.47216        2.71293    0.00000    0.00000
             -1.19061   -0.55541    1.30409        0.00000   -1.11257    0.00000
             -1.47216    1.30409    0.02738        0.00000    0.00000   -1.60036

         MAIN DIRECTIONS OF THE EFG   1.0000  1.0000  0.0140
                                     -0.7231  0.5280  1.0000
                                     -0.8993  0.6874 -0.7885
:ANG002:  ANGLE WITH OLD X-AXIS =        45.0

:ETA002:                         ASYMM. ETA =     0.17980


     HELLMANN-FEYNMAN-FORCE IN mRy/a.u. = |F|  Fx       Fy             Fz
:FHF001:   1.ATOM      3.234297107072      0.000000000000      0.000000000000     -3.234297107072

     HELLMANN-FEYNMAN-FORCE IN mRy/a.u. = |F|  Fx       Fy             Fz
:FHF002:   2.ATOM   1059.952441015031   -817.800519925485   -422.479744048851   -525.559085823608

:FIT001: LUSE= 13 SIGMA OF V-XC FIT FOR ATOM  1  0.7706199E-02
:FIT001: LUSE= 13 SIGMA OF V-XC FIT FOR ATOM  1  0.7706199E-02
:FIT002: LUSE= 13 SIGMA OF V-XC FIT FOR ATOM  2  0.1286014E-02
:FIT002: LUSE= 13 SIGMA OF V-XC FIT FOR ATOM  2  0.1286014E-02
:DEN  : DENSITY INTEGRAL  =         -1215.73768862   (Ry)
       ELS_POTENTIAL_AT Z=0 and Z=0.5:   0.04269  -0.08431
       ELS_POTENTIAL_AT Y=0 and Y=0.5:   0.00000   0.00000
:VZERO:v0,v0c,v0x  -0.69854   0.04269  -0.74123 v5,v5c,v5x  -0.75044  -0.08431  -0.66613
:VZERY:v0,v0c,v0x  -0.70528   0.00000  -0.70528 v5,v5c,v5x  -0.70528   0.00000  -0.70528
:VZERX:v0,v0c,v0x  -0.10152   0.27945  -0.38097 v5,v5c,v5x  -2.50885  -1.62704  -0.88181
:LMAX-WF:   10   Non-Spherical LMAX:   4

          ATOMIC SPHERE DEPENDENT PARAMETERS FOR ATOM  Si        
:e__0001: OVERALL ENERGY PARAMETER IS   -0.1000
          OVERALL BASIS SET ON ATOM IS LAPW
:E0_0001: E( 0)=   -0.1000
             APW+lo
:E1_0001: E( 1)=   -0.1000
             APW+lo

          ATOMIC SPHERE DEPENDENT PARAMETERS FOR ATOM  O         
:e__0002: OVERALL ENERGY PARAMETER IS   -0.1000
          OVERALL BASIS SET ON ATOM IS LAPW
:E0_0002: E( 0)=   -0.1000
             APW+lo
:E0_0002: E( 0)=   -1.2724   E(BOTTOM)=   -2.562   E(TOP)=    0.017  1  2   232
             LOCAL ORBITAL
:E1_0002: E( 1)=   -0.1000
             APW+lo

       K=   0.00000   0.00000   0.00000            1
:RKM  : MATRIX SIZE  1625LOs:  42  RKM= 6.97  WEIGHT= 1.00  PGR:    
       EIGENVALUES ARE:
:EIG00001:      -1.5024501   -1.4073507   -1.4073507   -1.3681877   -1.3668567
:EIG00006:      -1.3668567   -0.6471712   -0.6471712   -0.4654121   -0.4614503
:EIG00011:      -0.4491630   -0.4491630   -0.2760294   -0.2760294   -0.2637045
:EIG00016:      -0.2468097   -0.1970896   -0.1970896   -0.1947591   -0.1619322
:EIG00021:      -0.1619322   -0.1435676   -0.1191611   -0.1191611    0.4645026
:EIG00026:       0.7348337    0.7348337    0.7521420    0.7521420    0.8616257
:EIG00031:       0.8636113    0.9323872    0.9479922    0.9479922    0.9711314
:EIG00036:       0.9711314    1.0475467    1.1372357    1.1471429    1.1471429
:EIG00041:       1.1610491    1.1610491    1.2766661    1.2766661    1.3693338
:EIG00046:       1.4170496    1.4170496    1.5309526    1.5309526
 
       ********************************************************

:KPT   :      NUMBER OF K-POINTS:    94
       Insulator, EF-inconsistency corrected
:GAP (global)   :  0.568393 Ry =     7.733 eV (accurate value if proper k-mesh)
         Bandranges (emin - emax) and occupancy:
:BAN00014:  14   -0.289826   -0.259858  2.00000000
:BAN00015:  15   -0.267879   -0.248189  2.00000000
:BAN00016:  16   -0.249432   -0.222230  2.00000000
:BAN00017:  17   -0.232439   -0.197090  2.00000000
:BAN00018:  18   -0.216077   -0.192781  2.00000000
:BAN00019:  19   -0.213397   -0.163409  2.00000000
:BAN00020:  20   -0.193601   -0.161291  2.00000000
:BAN00021:  21   -0.174577   -0.153721  2.00000000
:BAN00022:  22   -0.154055   -0.116253  2.00000000
:BAN00023:  23   -0.140658   -0.110010  2.00000000
:BAN00024:  24   -0.131740   -0.103890  2.00000000
:BAN00025:  25    0.464503    0.669973  0.00000000
:BAN00026:  26    0.590861    0.734834  0.00000000
:BAN00027:  27    0.708094    0.758328  0.00000000
:BAN00028:  28    0.743151    0.798995  0.00000000
:BAN00029:  29    0.752142    0.814028  0.00000000
        Energy to separate low and high energystates:   -0.76532


:NOE  : NUMBER OF ELECTRONS          =   48.000

:FER  : F E R M I - ENERGY(TETRAH.M.)=  -0.1038904577
:GMA  : POTENTIAL AND CHARGE CUT-OFF  12.00 Ry**.5

:POS001: ATOM   -1 X,Y,Z = 0.46913 0.46913 0.50000  MULT= 3  ZZ= 14.000  Si        

       LMMAX 25
       LM=   0 0  1 0  2 0  2 2 -2 2  3 0  3 2 -3 2  4 0  4 2 -4 2  4 4 -4 4  5 0  5 2 -5 2  5 4
        -5 4  6 0  6 2 -6 2  6 4 -6 4  6 6 -6 6

:CHA001: TOTAL VALENCE CHARGE INSIDE SPHERE   1 =   0.4827    (RMT=  1.4000 )
:PCS001: PARTIAL CHARGES SPHERE =  1 S,P,D,F,PX,PY,PZ,D-Z2,D-X2Y2,D-XY,D-XZ,D-YZ 
:QTL001: 0.1681 0.2160 0.0889 0.0081 0.0726 0.0732 0.0702 0.0100 0.0138 0.0198 0.0230 0.0223
        Q-s-low E-s-low   Q-p-low E-p-low   Q-d-low E-d-low   Q-f-low E-f-low
:EPL001:  0.0443 -1.4515    0.0412 -1.3844    0.0133 -1.3843    0.0017 -1.4234
        Q-s-hi  E-s-hi    Q-p-hi  E-p-hi    Q-d-hi  E-d-hi    Q-f-hi  E-f-hi 
:EPH001:  0.1238 -0.5863    0.1748 -0.4376    0.0756 -0.3075    0.0065 -0.2913

                      QXX         QXY         QYY         QZZ       UP TO R
:VZZ001:            -0.22319     0.19460    -0.37622     0.59941       1.400

:POS002: ATOM   -2 X,Y,Z = 0.14451 0.41337 0.61807  MULT= 6  ZZ=  8.000  O         

       LMMAX 49

:CHA002: TOTAL VALENCE CHARGE INSIDE SPHERE   2 =   5.8431    (RMT=  1.6200 )
:PCS002: PARTIAL CHARGES SPHERE =  2 S,P,D,F,PX,PY,PZ,D-Z2,D-X2Y2,D-XY,D-XZ,D-YZ 
:QTL002: 1.6269 4.1999 0.0121 0.0038 1.3911 1.4100 1.3989 0.0019 0.0027 0.0021 0.0026 0.0027
        Q-s-low E-s-low   Q-p-low E-p-low   Q-d-low E-d-low   Q-f-low E-f-low
:EPL002:  1.5698 -1.4025    0.0183 -1.4120    0.0036 -1.4116    0.0003 -1.4053
        Q-s-hi  E-s-hi    Q-p-hi  E-p-hi    Q-d-hi  E-d-hi    Q-f-hi  E-f-hi 
:EPH002:  0.0571 -0.3633    4.1816 -0.2918    0.0085 -0.3767    0.0034 -0.3572

                      QXX         QXY         QYY         QZZ       UP TO R
:VZZ002:             1.17538    -2.59564    -1.29657     0.12119       1.620

:CHA  : TOTAL VALENCE CHARGE INSIDE UNIT CELL =      48.000000

:SUM  : SUM OF EIGENVALUES =         -27.823217476


        1.ATOM      Si                    4 CORE STATES
       CORE-FORCE in mRy/a.u. = |F|      Fx             Fy             Fz
:FCO001:   1.ATOM      0.097957054156      0.000000000000      0.000000000000      0.097957054156

:1S 001: 1S                -130.534803544 Ry
:2S 001: 2S                  -9.546426942 Ry
:2PP001: 2P*                 -6.348591540 Ry
:2P 001: 2P                  -6.301200151 Ry

        2.ATOM      O                     1 CORE STATES
       CORE-FORCE in mRy/a.u. = |F|      Fx             Fy             Fz
:FCO002:   2.ATOM    282.620123427848    217.953541191544    112.676738231870    140.265251255843

:1S 002: 1S                 -37.252740901 Ry
:CINT001 Core Integral Atom   1    9.921562
:CINT002 Core Integral Atom   2    2.003872

       DENSITY AT NUCLEUS
        JATOM        VALENCE       SEMI-CORE          CORE           TOTAL
:RTO001:   1        5.021787     1886.050658        0.000000     1891.072444
:RTO002:   2       15.530065      303.946158        0.000000      319.476223
     
       CHARGES OF NEW CHARGE DENSITY
:NTO   : INTERSTITIAL CHARGE =    11.706124
:NPC   : PW Pseudocharge     =    27.040975
:NTO001: CHARGE SPHERE  1    =    10.404224
:NTO002: CHARGE SPHERE  2    =     7.846965

:NEC01: NUCLEAR AND ELECTRONIC CHARGE     90.00000    90.00059
     
       CHARGES OF OLD CHARGE DENSITY
:OTO   : INTERSTITIAL CHARGE =    15.477875
:OPC   : PW Pseudocharge     =    26.779440
:OTO001: CHARGE SPHERE  1    =    10.599355
:OTO002: CHARGE SPHERE  2    =     7.120677

:NEC02: NUCLEAR AND ELECTRONIC CHARGE     90.00000    90.00000
     
       CONVERGENCE TEST
:DTO001: DIFFERENCE IN SPHERE  1 =  0.2774050
:DTO002: DIFFERENCE IN SPHERE  2 =  0.8549314

:DIS  :  CHARGE DISTANCE       ( 0.8549314 for atom    2 spin 1)      0.6624226
 PW Mixed is         2149
 
******************************************************
* MULTISECANT MIXING VER9 RELEASE 10.4.0              *
* Standard Mode with controls                        *
* Fixed density scale                                *
* Regularization       1.000E-04                     *
* Trust Upper Limit    5.000E+00                     *
* Max Number of Memory Steps    8                    *
******************************************************
 
:PWTMP   6.1772E+02  5.7600E+02  7.5905E+02
:PLANE:  PW TOTAL      8.6400 DISTAN   9.15E-01  1.06E+01 %
:CHARG:  CLM/ATOM     80.8974 DISTAN   1.10E+00  1.35E+00 %
 
Step History
        DMIX         DMIXT        Red     Pred      Trust     Lambda    MagRel    MagAbs     Beta
  1   3.5000E-02   3.5000E-02 -1.00E+00  1.00E+00 -1.00E+01  1.00E+00  3.50E-02  3.50E-02  1.00E+00
  2   3.5000E-02   3.5000E-02  7.27E-01  1.00E+00 -1.00E+01  1.00E+00  3.50E-02  1.19E-01  1.00E+00
  3   5.9819E-02   5.9819E-02 -1.00E+00  1.00E+00 -1.00E+01  1.00E+00  5.98E-02  1.48E-01  1.00E+00
:JACOBIANS    7.325E-01   4.105E-03
  
:NORMS:  1/Froebius, Min, Max, Used   0.9838E+00  0.4904E+00  0.9838E+00  0.9838E+00
:INFO :  Number of Memory Steps    2 Skipping    0
:INFO :  SLambda=    0.0778156184  Max    0.0778156184
:PREDicted Charge, CTotal, PW Trust    1.230E-02   6.384E-02   6.772E-01
:PREDicted DMix, Beta, BLim   6.2196E-02  9.6241E-01  1.8705E+00

Eigenvalues, unscaled except for SY+YY
   #     SY Real        SY Imag          SS             YY         SY+YY Real      SY+YY Imag
   1   1.963108E+00   0.000000E+00   1.935779E+00   1.999947E+00   2.152707E+00   0.000000E+00
   2  -1.049659E-15   0.000000E+00  -3.383223E-17   5.340869E-05   5.340599E-05   0.000000E+00
 
:INFO :  Singular value  2.153E+00 Weight  1.000E+00 Projection  1.318E-02
:INFO :  Singular value  5.341E-05 Weight  6.656E-02 Projection -7.443E+00
:RANK :  ACTIVE   1.07/2  =  53.33 % ; YY RANK   1.07/2  =  53.33 %
 
:DLIM :  Beta Active  9.718E-01
:BLIM :  VZERO Control Off
:TRUST:  Step 3.33E-01  Charge 7.50E-02 (e) CTO  2.69E-01 (e) PW  4.14E-01 (e)
:DIRM :  MEMORY  2/8  SCALE   1.000 RED  0.96 PRED  1.00 NEXT  0.99 BETA  0.97
:TRAVE:  Charge 3.98E-02 (e) CTO  2.06E-01 (e) PW  1.52E-01 (e)
:DIRP :  |MSR1|= 5.251E-02 |PRATT|= 9.152E-01 ANGLE=   7.1 DEGREES
:DIRQ :  |MSR1|= 1.187E-01 |PRATT|= 2.191E+00 ANGLE=   1.3 DEGREES
:DIRT :  |MSR1|= 1.298E-01 |PRATT|= 2.375E+00 ANGLE=   3.3 DEGREES
:MIX  :   MSD1   REGULARIZATION:  2.00E-04 GREED: 0.05480  Newton 1.00  0.0546                
     
       CHARGES OF MIXED CHARGE DENSITY
:CTO   : INTERSTITIAL CHARGE =    15.271423
:CPC   : PW Pseudocharge     =    26.785972
:CTO001: CHARGE SPHERE  1    =    10.588602
:CTO002: CHARGE SPHERE  2    =     7.160462

:NEC03: NUCLEAR AND ELECTRONIC CHARGE     90.00000    90.00000

PW CHANGE     H    K    L             Current                    Change               Residue
:PTO001:      0    0    0  5.54076800E-02 0.00000000E+00 -2.634E-04  0.000E+00 -4.627E-03  0.000E+00
:PTO002:      0    0   -1 -7.39412572E-10 0.00000000E+00  3.980E-11  0.000E+00  7.284E-10  0.000E+00
:PTO003:     -1    0    0 -3.92654663E-02 0.00000000E+00  1.225E-04  0.000E+00  2.211E-03  0.000E+00
:PTO004:     -1    0   -1  4.46339517E-02-7.73082702E-02 -2.867E-05  4.966E-05 -4.429E-04  7.672E-04
:PTO005:     -1    0    1  2.67048146E-02 4.62540946E-02 -2.061E-05 -3.570E-05 -3.624E-04 -6.276E-04
:PTO006:      0    0   -2 -3.60396556E-10 0.00000000E+00  1.632E-11  0.000E+00  2.954E-10  0.000E+00
:PTO007:     -2    1    0 -1.60047060E-02-2.38419687E-02 -1.198E-05 -5.022E-05 -2.740E-04 -1.252E-03
:PTO008:     -1   -1    0 -1.60047060E-02 2.38419687E-02 -1.198E-05  5.022E-05 -2.740E-04  1.252E-03
:PTO009:     -1    0   -2  3.84173254E-02 6.65407627E-02  7.409E-05  1.283E-04  1.950E-03  3.377E-03
:PTO010:     -1    0    2  1.06028548E-03-1.83646842E-03 -3.356E-06  5.813E-06  1.860E-04 -3.222E-04
:PTO011:     -2    1   -1 -4.70581272E-02-2.59279066E-02 -1.208E-04 -1.932E-05 -2.904E-03 -9.909E-04
:PTO012:     -1   -1   -1  4.59832888E-02 2.77895813E-02  7.714E-05  9.496E-05  2.310E-03  2.020E-03

:ENE  : ********** TOTAL ENERGY IN Ry =        -2644.78713088

       TOTAL FORCE IN mRy/a.u. = |F|     Fx             Fy             Fz     with/without FOR in case.in2
:FOR001:   1.ATOM          3.136          0.000          0.000         -3.136 partial forces
:FOR002:   2.ATOM        777.332       -599.847       -309.803       -385.294 partial forces
       TOTAL FORCE WITH RESPECT TO GLOBAL CARTESIAN COORDINATES:
:FCA001:   1.ATOM                        -2.716         -1.568          0.000 partial forces
:FCA002:   2.ATOM                      -599.847       -309.803       -385.294 partial forces
       TOTAL FORCE WITH RESPECT TO THE GLOBAL COORDINATE SYSTEM:
:FGL001:   1.ATOM                -3.136340053    -3.136340053     0.000000000 partial forces
:FGL002:   2.ATOM              -692.643629289  -656.124820462  -385.293834568 partial forces
 Flat Integration
 New Mode for Coulomb Integral
 Consistent 3/8+Simpson combinations
 Extension of core to zero
 LDM version in phi
 Fifth-order quadrature in outwin


            ---------
:ITE004:  4. ITERATION
            ---------

:NATO :    2 INDEPENDENT AND    9 TOTAL ATOMS IN UNITCELL
       SUBSTANCE: SiO2 for tests                                              

       LATTICE                      = H   
:POT  : POTENTIAL OPTION EX_PBE EC_PBE VX_PBE VC_PBE
:LAT  : LATTICE CONSTANTS=  9.26193  9.26193 10.21737
:VOL  : UNIT CELL VOLUME =     759.05354
       MODE OF CALCULATION IS       = RELA
       NON-SPINPOLARIZED CALCULATION
:IFFT  : FFT-parameters:   72   72   80 Factor: 2.00


   CONVERGENCE PARAMETER FOR PSEUDOCHARGE: NCON=  9
   MAXIMAL VALUE OF RMT(JATOM)*ABSK(NKK) : RK  =19.43469


:VKCOUL :  VK-COUL convergence: 0.341E-05
       ATOMNUMBER=  1 Si         VCOUL-ZERO = -0.14387E+01
:EFG001:                        EFG         =     0.04315   *10**21  V / m**2
                               V20  TOT/SRF=     0.03737    -0.01477
                               V22  TOT/SRF=     0.00572     0.00131
                               V22M TOT/SRF=     0.00760    -0.01807
                               V21  TOT/SRF=     0.00000     0.00000
                               V21M TOT/SRF=     0.00000     0.00000

             -0.01585    0.00760    0.00000       -0.01206    0.00000    0.00000
              0.00760   -0.02730    0.00000        0.00000   -0.03109    0.00000
              0.00000    0.00000    0.04315        0.00000    0.00000    0.04315

         MAIN DIRECTIONS OF THE EFG   1.0000 -0.4991  0.0000
                                      0.4991  1.0000  0.0000
                                      0.0000  0.0000  1.0000
:ANG001:  ANGLE WITH OLD X-AXIS =        26.5

:ETA001:                         ASYMM. ETA =     0.44102


       ATOMNUMBER=  2 O          VCOUL-ZERO = -0.52745E-01
:EFG002:                        EFG         =     3.10750   *10**21  V / m**2
                               V20  TOT/SRF=     0.03022     0.02326
                               V22  TOT/SRF=     0.62167     0.58492
                               V22M TOT/SRF=    -1.35911    -1.29205
                               V21  TOT/SRF=    -1.68543    -1.59124
                               V21M TOT/SRF=     1.49953     1.40198

              0.60422   -1.35911   -1.68543        3.10750    0.00000    0.00000
             -1.35911   -0.63912    1.49953        0.00000   -1.26838    0.00000
             -1.68543    1.49953    0.03490        0.00000    0.00000   -1.83911

         MAIN DIRECTIONS OF THE EFG   1.0000  1.0000  0.0113
                                     -0.7236  0.5293  1.0000
                                     -0.9017  0.6843 -0.7900
:ANG002:  ANGLE WITH OLD X-AXIS =        45.0

:ETA002:                         ASYMM. ETA =     0.18366


     HELLMANN-FEYNMAN-FORCE IN mRy/a.u. = |F|  Fx       Fy             Fz
:FHF001:   1.ATOM      5.252027697721      0.000000000000      0.000000000000     -5.252027697721

     HELLMANN-FEYNMAN-FORCE IN mRy/a.u. = |F|  Fx       Fy             Fz
:FHF002:   2.ATOM   1033.990514299804   -797.026257344304   -414.669821664353   -511.795337773371

:FIT001: LUSE= 13 SIGMA OF V-XC FIT FOR ATOM  1  0.8343374E-02
:FIT001: LUSE= 13 SIGMA OF V-XC FIT FOR ATOM  1  0.8343374E-02
:FIT002: LUSE= 13 SIGMA OF V-XC FIT FOR ATOM  2  0.1224338E-02
:FIT002: LUSE= 13 SIGMA OF V-XC FIT FOR ATOM  2  0.1224338E-02
:DEN  : DENSITY INTEGRAL  =         -1217.04451270   (Ry)
       ELS_POTENTIAL_AT Z=0 and Z=0.5:   0.04477  -0.08677
       ELS_POTENTIAL_AT Y=0 and Y=0.5:   0.00000   0.00000
:VZERO:v0,v0c,v0x  -0.69278   0.04477  -0.73755 v5,v5c,v5x  -0.75015  -0.08677  -0.66338
:VZERY:v0,v0c,v0x  -0.70190   0.00000  -0.70190 v5,v5c,v5x  -0.70190   0.00000  -0.70190
:VZERX:v0,v0c,v0x  -0.10638   0.27251  -0.37889 v5,v5c,v5x  -2.51092  -1.63080  -0.88011
:LMAX-WF:   10   Non-Spherical LMAX:   4

          ATOMIC SPHERE DEPENDENT PARAMETERS FOR ATOM  Si        
:e__0001: OVERALL ENERGY PARAMETER IS   -0.3000
          OVERALL BASIS SET ON ATOM IS LAPW
:E0_0001: E( 0)=   -0.3000
             APW+lo
:E1_0001: E( 1)=   -0.3000
             APW+lo

          ATOMIC SPHERE DEPENDENT PARAMETERS FOR ATOM  O         
:e__0002: OVERALL ENERGY PARAMETER IS   -0.3000
          OVERALL BASIS SET ON ATOM IS LAPW
:E0_0002: E( 0)=    0.1000
             APW+lo
:E0_0002: E( 0)=   -1.2412   E(BOTTOM)=   -2.537   E(TOP)=    0.054  1  2   228
             LOCAL ORBITAL
:E1_0002: E( 1)=   -0.3000
             APW+lo

       K=   0.00000   0.00000   0.00000            1
:RKM  : MATRIX SIZE  1625LOs:  42  RKM= 6.97  WEIGHT= 1.00  PGR:    
       EIGENVALUES ARE:
:EIG00001:      -1.4806082   -1.3830664   -1.3830664   -1.3427123   -1.3412347
:EIG00006:      -1.3412347   -0.6297378   -0.6297378   -0.4437836   -0.4406176
:EIG00011:      -0.4279240   -0.4279240   -0.2548366   -0.2548366   -0.2416043
:EIG00016:      -0.2245709   -0.1723031   -0.1723031   -0.1701029   -0.1366818
:EIG00021:      -0.1366818   -0.1177596   -0.0927765   -0.0927765    0.4719481
:EIG00026:       0.7384011    0.7384011    0.7580906    0.7580906    0.8667361
:EIG00031:       0.8721199    0.9392432    0.9577603    0.9577604    0.9838138
:EIG00036:       0.9838138    1.0574059    1.1440656    1.1520594    1.1520594
:EIG00041:       1.1646309    1.1646310    1.2812633    1.2812633    1.3737747
       ********************************************************

:KPT   :      NUMBER OF K-POINTS:    94
       Insulator, EF-inconsistency corrected
:GAP (global)   :  0.548535 Ry =     7.463 eV (accurate value if proper k-mesh)
         Bandranges (emin - emax) and occupancy:
:BAN00014:  14   -0.269399   -0.237696  2.00000000
:BAN00015:  15   -0.246945   -0.225561  2.00000000
:BAN00016:  16   -0.226903   -0.198707  2.00000000
:BAN00017:  17   -0.209279   -0.172303  2.00000000
:BAN00018:  18   -0.192459   -0.168461  2.00000000
:BAN00019:  19   -0.189809   -0.138077  2.00000000
:BAN00020:  20   -0.169441   -0.136001  2.00000000
:BAN00021:  21   -0.149728   -0.128255  2.00000000
:BAN00022:  22   -0.128461   -0.089415  2.00000000
:BAN00023:  23   -0.114722   -0.083052  2.00000000
:BAN00024:  24   -0.105670   -0.076587  2.00000000
:BAN00025:  25    0.471948    0.679310  0.00000000
:BAN00026:  26    0.600829    0.739781  0.00000000
:BAN00027:  27    0.717174    0.763088  0.00000000
:BAN00028:  28    0.746152    0.805251  0.00000000
:BAN00029:  29    0.758091    0.820157  0.00000000
        Energy to separate low and high energystates:   -0.74960


:NOE  : NUMBER OF ELECTRONS          =   48.000

:FER  : F E R M I - ENERGY(TETRAH.M.)=  -0.0765873461
:GMA  : POTENTIAL AND CHARGE CUT-OFF  12.00 Ry**.5

:POS001: ATOM   -1 X,Y,Z = 0.46913 0.46913 0.50000  MULT= 3  ZZ= 14.000  Si        

       LMMAX 25
       LM=   0 0  1 0  2 0  2 2 -2 2  3 0  3 2 -3 2  4 0  4 2 -4 2  4 4 -4 4  5 0  5 2 -5 2  5 4
        -5 4  6 0  6 2 -6 2  6 4 -6 4  6 6 -6 6

:CHA001: TOTAL VALENCE CHARGE INSIDE SPHERE   1 =   0.4952    (RMT=  1.4000 )
:PCS001: PARTIAL CHARGES SPHERE =  1 S,P,D,F,PX,PY,PZ,D-Z2,D-X2Y2,D-XY,D-XZ,D-YZ 
:QTL001: 0.1724 0.2221 0.0911 0.0081 0.0747 0.0753 0.0721 0.0103 0.0142 0.0203 0.0234 0.0228
        Q-s-low E-s-low   Q-p-low E-p-low   Q-d-low E-d-low   Q-f-low E-f-low
:EPL001:  0.0458 -1.4283    0.0423 -1.3592    0.0135 -1.3592    0.0017 -1.3993
        Q-s-hi  E-s-hi    Q-p-hi  E-p-hi    Q-d-hi  E-d-hi    Q-f-hi  E-f-hi 
:EPH001:  0.1266 -0.5673    0.1798 -0.4159    0.0776 -0.2820    0.0065 -0.2642

                      QXX         QXY         QYY         QZZ       UP TO R
:VZZ001:            -0.22364     0.19460    -0.40069     0.62433       1.400

:POS002: ATOM   -2 X,Y,Z = 0.14451 0.41337 0.61807  MULT= 6  ZZ=  8.000  O         

       LMMAX 49

:CHA002: TOTAL VALENCE CHARGE INSIDE SPHERE   2 =   5.7937    (RMT=  1.6200 )
:PCS002: PARTIAL CHARGES SPHERE =  2 S,P,D,F,PX,PY,PZ,D-Z2,D-X2Y2,D-XY,D-XZ,D-YZ 
:QTL002: 1.6211 4.1558 0.0125 0.0038 1.3767 1.3950 1.3842 0.0020 0.0028 0.0022 0.0027 0.0028
        Q-s-low E-s-low   Q-p-low E-p-low   Q-d-low E-d-low   Q-f-low E-f-low
:EPL002:  1.5615 -1.3780    0.0187 -1.3879    0.0037 -1.3874    0.0003 -1.3809
        Q-s-hi  E-s-hi    Q-p-hi  E-p-hi    Q-d-hi  E-d-hi    Q-f-hi  E-f-hi 
:EPH002:  0.0596 -0.3433    4.1371 -0.2684    0.0088 -0.3527    0.0035 -0.3342

                      QXX         QXY         QYY         QZZ       UP TO R
:VZZ002:             1.10124    -2.41848    -1.21809     0.11685       1.620

:CHA  : TOTAL VALENCE CHARGE INSIDE UNIT CELL =      48.000000

:SUM  : SUM OF EIGENVALUES =         -26.710892664


        1.ATOM      Si                    4 CORE STATES
       CORE-FORCE in mRy/a.u. = |F|      Fx             Fy             Fz
:FCO001:   1.ATOM      1.549237294479      0.000000000000      0.000000000000      1.549237294479

:1S 001: 1S                -130.551862689 Ry
:2S 001: 2S                  -9.558311033 Ry
:2PP001: 2P*                 -6.360776733 Ry
:2P 001: 2P                  -6.313361263 Ry

        2.ATOM      O                     1 CORE STATES
       CORE-FORCE in mRy/a.u. = |F|      Fx             Fy             Fz
:FCO002:   2.ATOM    288.439253182320    222.159257412495    115.670889689002    143.047937422593

:1S 002: 1S                 -37.192138142 Ry
:CINT001 Core Integral Atom   1    9.921865
:CINT002 Core Integral Atom   2    2.003853

       DENSITY AT NUCLEUS
        JATOM        VALENCE       SEMI-CORE          CORE           TOTAL
:RTO001:   1        5.162212     1886.107577        0.000000     1891.269789
:RTO002:   2       15.389448      303.921997        0.000000      319.311445
     
       CHARGES OF NEW CHARGE DENSITY
:NTO   : INTERSTITIAL CHARGE =    11.964217
:NPC   : PW Pseudocharge     =    26.993964
:NTO001: CHARGE SPHERE  1    =    10.417050
:NTO002: CHARGE SPHERE  2    =     7.797537

:NEC01: NUCLEAR AND ELECTRONIC CHARGE     90.00000    90.00059
     
       CHARGES OF OLD CHARGE DENSITY
:OTO   : INTERSTITIAL CHARGE =    15.271423
:OPC   : PW Pseudocharge     =    26.785972
:OTO001: CHARGE SPHERE  1    =    10.588602
:OTO002: CHARGE SPHERE  2    =     7.160462

:NEC02: NUCLEAR AND ELECTRONIC CHARGE     90.00000    90.00000
     
       CONVERGENCE TEST
:DTO001: DIFFERENCE IN SPHERE  1 =  0.2427166
:DTO002: DIFFERENCE IN SPHERE  2 =  0.7311732

:DIS  :  CHARGE DISTANCE       ( 0.7311732 for atom    2 spin 1)      0.5683543
 PW Mixed is         2149
 
******************************************************
* MULTISECANT MIXING VER9 RELEASE 10.4.0              *
* Standard Mode with controls                        *
* Fixed density scale                                *
* Regularization       1.000E-04                     *
* Trust Upper Limit    5.000E+00                     *
* Max Number of Memory Steps    8                    *
******************************************************
 
:PWTMP   6.1772E+02  5.7600E+02  7.5905E+02
:PLANE:  PW TOTAL      8.6253 DISTAN   8.57E-01  9.94E+00 %
:CHARG:  CLM/ATOM     80.8946 DISTAN   9.42E-01  1.16E+00 %
 
Step History
        DMIX         DMIXT        Red     Pred      Trust     Lambda    MagRel    MagAbs     Beta
  1   3.5000E-02   3.5000E-02 -1.00E+00  1.00E+00 -1.00E+01  1.00E+00  3.50E-02  3.50E-02  1.00E+00
  2   3.5000E-02   3.5000E-02  7.27E-01  1.00E+00 -1.00E+01  1.00E+00  3.50E-02  1.19E-01  1.00E+00
  3   5.9819E-02   5.9819E-02  9.60E-01  1.00E+00 -1.00E+01  7.78E-02  5.98E-02  1.48E-01  1.00E+00
  4   5.4803E-02   5.4803E-02 -1.00E+00  9.93E-01  3.33E-01  1.00E+00  5.46E-02  1.30E-01  9.72E-01
:JACOBIANS    8.833E-01   1.676E-01
  
:NORMS:  1/Froebius, Min, Max, Used   0.7605E+00  0.4668E+00  0.1014E+01  0.8350E+00
:INFO :  Number of Memory Steps    3 Skipping    0
:INFO :  SLambda=    1.4338845720  Max    1.4338845720
:PREDicted Charge, CTotal, PW Trust    2.895E-01   1.502E+00   1.561E+00
:PREDicted DMix, Beta, BLim   3.7949E-01  3.8882E+00  2.2882E+00

Eigenvalues, unscaled except for SY+YY
   #     SY Real        SY Imag          SS             YY         SY+YY Real      SY+YY Imag
   1   1.737318E+00   0.000000E+00   1.578952E+00   2.264803E+00   4.669655E+00   0.000000E+00
   2  -9.121246E-16   0.000000E+00   1.559271E-01   7.351651E-01   3.277707E-05   0.000000E+00
   3   3.442502E-01   0.000000E+00   3.134834E-17   3.169562E-05   1.315041E+00   0.000000E+00
 
:INFO :  Singular value  4.679E+00 Weight  1.000E+00 Projection -3.063E-01
:INFO :  Singular value  1.313E+00 Weight  1.000E+00 Projection -2.126E+00
:INFO :  Singular value  3.278E-05 Weight  2.052E-02 Projection -1.261E+00
:RANK :  ACTIVE   2.02/3  =  67.35 % ; YY RANK   2.02/3  =  67.31 %
 
:BLIM :  VZERO Control Off
:TRUST:  Step 3.88E-01  Charge 8.25E-02 (e) CTO  2.96E-01 (e) PW  4.56E-01 (e)
:DTRUS:  Lambda    9.009E+00 Increment    7.276E-12 Iterations   130 DMIX    4.453E-02
:INFOA:  Angle SubSpace to MSR1     30.72
:DIRM :  MEMORY  3/8  SCALE   1.000 RED  0.87 PRED  0.99 NEXT  0.82 
:TRAVE:  Charge 4.84E-02 (e) CTO  2.51E-01 (e) PW  1.72E-01 (e)
:DIRP :  |MSR1|= 8.292E-02 |PRATT|= 8.570E-01 ANGLE=  10.5 DEGREES
:DIRQ :  |MSR1|= 1.605E-01 |PRATT|= 1.883E+00 ANGLE=   8.4 DEGREES
:DIRT :  |MSR1|= 1.807E-01 |PRATT|= 2.069E+00 ANGLE=   9.2 DEGREES
:MIX  :   MSE1   REGULARIZATION:  2.26E-04 GREED: 0.13701  LMStep 0.19  0.0873 CTotal         
     
       CHARGES OF MIXED CHARGE DENSITY
:CTO   : INTERSTITIAL CHARGE =    14.975416
:CPC   : PW Pseudocharge     =    26.829437
:CTO001: CHARGE SPHERE  1    =    10.573056
:CTO002: CHARGE SPHERE  2    =     7.217569

:NEC03: NUCLEAR AND ELECTRONIC CHARGE     90.00000    90.00000

PW CHANGE     H    K    L             Current                    Change               Residue
:PTO001:      0    0    0  5.50749726E-02 0.00000000E+00 -3.327E-04  0.000E+00 -4.086E-03  0.000E+00
:PTO002:      0    0   -1 -6.66994415E-10 0.00000000E+00  7.242E-11  0.000E+00  6.888E-10  0.000E+00
:PTO003:     -1    0    0 -3.91233049E-02 0.00000000E+00  1.422E-04  0.000E+00  1.858E-03  0.000E+00
:PTO004:     -1    0   -1  4.46365631E-02-7.73127933E-02  2.611E-06 -4.523E-06 -3.317E-04  5.746E-04
:PTO005:     -1    0    1  2.66993482E-02 4.62446266E-02 -5.466E-06 -9.468E-06 -2.595E-04 -4.495E-04
:PTO006:      0    0   -2 -3.31585131E-10 0.00000000E+00  2.881E-11  0.000E+00  2.792E-10  0.000E+00
:PTO007:     -2    1    0 -1.60271325E-02-2.39828229E-02 -2.243E-05 -1.409E-04 -1.984E-04 -1.028E-03
:PTO008:     -1   -1    0 -1.60271325E-02 2.39828229E-02 -2.243E-05  1.409E-04 -1.984E-04  1.028E-03
:PTO009:     -1    0   -2  3.86384208E-02 6.69237112E-02  2.211E-04  3.829E-04  1.565E-03  2.711E-03
:PTO010:     -1    0    2  1.10480152E-03-1.91357245E-03  4.452E-05 -7.710E-05  1.221E-04 -2.115E-04
:PTO011:     -2    1   -1 -4.73786468E-02-2.60666920E-02 -3.205E-04 -1.388E-04 -2.423E-03 -6.871E-04
:PTO012:     -1   -1   -1  4.62637403E-02 2.79977667E-02  2.805E-04  2.082E-04  1.807E-03  1.755E-03

:ENE  : ********** TOTAL ENERGY IN Ry =        -2644.64710095

       TOTAL FORCE IN mRy/a.u. = |F|     Fx             Fy             Fz     with/without FOR in case.in2
:FOR001:   1.ATOM          3.703          0.000          0.000         -3.703 partial forces
:FOR002:   2.ATOM        745.552       -574.867       -298.999       -368.747 partial forces
       TOTAL FORCE WITH RESPECT TO GLOBAL CARTESIAN COORDINATES:
:FCA001:   1.ATOM                        -3.207         -1.851          0.000 partial forces
:FCA002:   2.ATOM                      -574.867       -298.999       -368.747 partial forces
       TOTAL FORCE WITH RESPECT TO THE GLOBAL COORDINATE SYSTEM:
:FGL001:   1.ATOM                -3.702790403    -3.702790403     0.000000000 partial forces
:FGL002:   2.ATOM              -663.799234318  -630.898549134  -368.747400351 partial forces
 Flat Integration
 New Mode for Coulomb Integral
 Consistent 3/8+Simpson combinations
 Extension of core to zero
 LDM version in phi
 Fifth-order quadrature in outwin


            ---------
:ITE005:  5. ITERATION
            ---------

:NATO :    2 INDEPENDENT AND    9 TOTAL ATOMS IN UNITCELL
       SUBSTANCE: SiO2 for tests                                              

       LATTICE                      = H   
:POT  : POTENTIAL OPTION EX_PBE EC_PBE VX_PBE VC_PBE
:LAT  : LATTICE CONSTANTS=  9.26193  9.26193 10.21737
:VOL  : UNIT CELL VOLUME =     759.05354
       MODE OF CALCULATION IS       = RELA
       NON-SPINPOLARIZED CALCULATION
:IFFT  : FFT-parameters:   72   72   80 Factor: 2.00


   CONVERGENCE PARAMETER FOR PSEUDOCHARGE: NCON=  9
   MAXIMAL VALUE OF RMT(JATOM)*ABSK(NKK) : RK  =19.43469


:VKCOUL :  VK-COUL convergence: 0.340E-05
       ATOMNUMBER=  1 Si         VCOUL-ZERO = -0.14443E+01
:EFG001:                        EFG         =     0.10970   *10**21  V / m**2
                               V20  TOT/SRF=     0.09500    -0.01146
                               V22  TOT/SRF=     0.01624     0.00034
                               V22M TOT/SRF=     0.02596    -0.01633
                               V21  TOT/SRF=     0.00000     0.00000
                               V21M TOT/SRF=     0.00000     0.00000

             -0.03861    0.02596    0.00000       -0.02423    0.00000    0.00000
              0.02596   -0.07109    0.00000        0.00000   -0.08547    0.00000
              0.00000    0.00000    0.10970        0.00000    0.00000    0.10970

         MAIN DIRECTIONS OF THE EFG   1.0000 -0.5541  0.0000
                                      0.5541  1.0000  0.0000
                                      0.0000  0.0000  1.0000
:ANG001:  ANGLE WITH OLD X-AXIS =        29.0

:ETA001:                         ASYMM. ETA =     0.55827


       ATOMNUMBER=  2 O          VCOUL-ZERO = -0.37523E-01
:EFG002:                        EFG         =     3.67303   *10**21  V / m**2
                               V20  TOT/SRF=     0.04040     0.02375
                               V22  TOT/SRF=     0.73703     0.58583
                               V22M TOT/SRF=    -1.59768    -1.29289
                               V21  TOT/SRF=    -1.99116    -1.59179
                               V21M TOT/SRF=     1.78249     1.40194

              0.71371   -1.59768   -1.99116        3.67303    0.00000    0.00000
             -1.59768   -0.76036    1.78249        0.00000   -1.48856    0.00000
             -1.99116    1.78249    0.04665        0.00000    0.00000   -2.18447

         MAIN DIRECTIONS OF THE EFG   1.0000  1.0000  0.0062
                                     -0.7243  0.5324  1.0000
                                     -0.9051  0.6788 -0.7934
:ANG002:  ANGLE WITH OLD X-AXIS =        45.0

:ETA002:                         ASYMM. ETA =     0.18947


     HELLMANN-FEYNMAN-FORCE IN mRy/a.u. = |F|  Fx       Fy             Fz
:FHF001:   1.ATOM      5.336869444788      0.000000000000      0.000000000000     -5.336869444788

     HELLMANN-FEYNMAN-FORCE IN mRy/a.u. = |F|  Fx       Fy             Fz
:FHF002:   2.ATOM    983.244520401362   -757.330669914997   -396.484268411900   -485.819172333992

:FIT001: LUSE= 13 SIGMA OF V-XC FIT FOR ATOM  1  0.9425564E-02
:FIT001: LUSE= 13 SIGMA OF V-XC FIT FOR ATOM  1  0.9425564E-02
:FIT002: LUSE= 13 SIGMA OF V-XC FIT FOR ATOM  2  0.1096270E-02
:FIT002: LUSE= 13 SIGMA OF V-XC FIT FOR ATOM  2  0.1096270E-02
:DEN  : DENSITY INTEGRAL  =         -1218.87814397   (Ry)
       ELS_POTENTIAL_AT Z=0 and Z=0.5:   0.04748  -0.08995
       ELS_POTENTIAL_AT Y=0 and Y=0.5:   0.00000   0.00000
:VZERO:v0,v0c,v0x  -0.68415   0.04748  -0.73163 v5,v5c,v5x  -0.74842  -0.08995  -0.65847
:VZERY:v0,v0c,v0x  -0.69652   0.00000  -0.69652 v5,v5c,v5x  -0.69652   0.00000  -0.69652
:VZERX:v0,v0c,v0x  -0.11143   0.26270  -0.37413 v5,v5c,v5x  -2.51065  -1.63465  -0.87600
:LMAX-WF:   10   Non-Spherical LMAX:   4

          ATOMIC SPHERE DEPENDENT PARAMETERS FOR ATOM  Si        
:e__0001: OVERALL ENERGY PARAMETER IS   -0.2844
          OVERALL BASIS SET ON ATOM IS LAPW
:E0_0001: E( 0)=   -0.2844
             APW+lo
:E1_0001: E( 1)=   -0.2844
             APW+lo

          ATOMIC SPHERE DEPENDENT PARAMETERS FOR ATOM  O         
:e__0002: OVERALL ENERGY PARAMETER IS   -0.2844
          OVERALL BASIS SET ON ATOM IS LAPW
:E0_0002: E( 0)=    0.1156
             APW+lo
:E0_0002: E( 0)=   -1.1983   E(BOTTOM)=   -2.502   E(TOP)=    0.105  1  2   228
             LOCAL ORBITAL
:E1_0002: E( 1)=   -0.2844
             APW+lo

       K=   0.00000   0.00000   0.00000            1
:RKM  : MATRIX SIZE  1625LOs:  42  RKM= 6.97  WEIGHT= 1.00  PGR:    
       EIGENVALUES ARE:
:EIG00001:      -1.4505170   -1.3496313   -1.3496313   -1.3076237   -1.3059515
:EIG00006:      -1.3059515   -0.6057604   -0.6057604   -0.4141937   -0.4121289
:EIG00011:      -0.3988940   -0.3988940   -0.2260956   -0.2260956   -0.2116320
:EIG00016:      -0.1944559   -0.1385021   -0.1385021   -0.1364373   -0.1024519
:EIG00021:      -0.1024519   -0.0827356   -0.0569923   -0.0569923    0.4830184
:EIG00026:       0.7439601    0.7439601    0.7672118    0.7672118    0.8718724
:EIG00031:       0.8866941    0.9489757    0.9703449    0.9703449    1.0012593
:EIG00036:       1.0012593    1.0707428    1.1531638    1.1593051    1.1593051
:EIG00041:       1.1704247    1.1704247    1.2881439    1.2881439    1.3800924
       ********************************************************

:KPT   :      NUMBER OF K-POINTS:    94
       Insulator, EF-inconsistency corrected
:GAP (global)   :  0.522521 Ry =     7.109 eV (accurate value if proper k-mesh)
         Bandranges (emin - emax) and occupancy:
:BAN00014:  14   -0.241686   -0.207633  2.00000000
:BAN00015:  15   -0.218594   -0.194829  2.00000000
:BAN00016:  16   -0.196292   -0.166869  2.00000000
:BAN00017:  17   -0.177814   -0.138502  2.00000000
:BAN00018:  18   -0.160343   -0.135448  2.00000000
:BAN00019:  19   -0.157634   -0.103683  2.00000000
:BAN00020:  20   -0.136634   -0.101657  2.00000000
:BAN00021:  21   -0.116004   -0.093738  2.00000000
:BAN00022:  22   -0.093694   -0.052974  2.00000000
:BAN00023:  23   -0.079456   -0.046453  2.00000000
:BAN00024:  24   -0.070286   -0.039503  2.00000000
:BAN00025:  25    0.483018    0.692900  0.00000000
:BAN00026:  26    0.615206    0.752615  0.00000000
:BAN00027:  27    0.730136    0.769939  0.00000000
:BAN00028:  28    0.750434    0.813670  0.00000000
:BAN00029:  29    0.767212    0.828860  0.00000000
        Energy to separate low and high energystates:   -0.72797


:NOE  : NUMBER OF ELECTRONS          =   48.000

:FER  : F E R M I - ENERGY(TETRAH.M.)=  -0.0395025264
:GMA  : POTENTIAL AND CHARGE CUT-OFF  12.00 Ry**.5

:POS001: ATOM   -1 X,Y,Z = 0.46913 0.46913 0.50000  MULT= 3  ZZ= 14.000  Si        

       LMMAX 25
       LM=   0 0  1 0  2 0  2 2 -2 2  3 0  3 2 -3 2  4 0  4 2 -4 2  4 4 -4 4  5 0  5 2 -5 2  5 4
        -5 4  6 0  6 2 -6 2  6 4 -6 4  6 6 -6 6

:CHA001: TOTAL VALENCE CHARGE INSIDE SPHERE   1 =   0.5120    (RMT=  1.4000 )
:PCS001: PARTIAL CHARGES SPHERE =  1 S,P,D,F,PX,PY,PZ,D-Z2,D-X2Y2,D-XY,D-XZ,D-YZ 
:QTL001: 0.1781 0.2303 0.0940 0.0082 0.0774 0.0782 0.0747 0.0108 0.0148 0.0210 0.0241 0.0234
        Q-s-low E-s-low   Q-p-low E-p-low   Q-d-low E-d-low   Q-f-low E-f-low
:EPL001:  0.0479 -1.3963    0.0436 -1.3246    0.0136 -1.3246    0.0017 -1.3663
        Q-s-hi  E-s-hi    Q-p-hi  E-p-hi    Q-d-hi  E-d-hi    Q-f-hi  E-f-hi 
:EPH001:  0.1302 -0.5412    0.1867 -0.3862    0.0804 -0.2472    0.0065 -0.2273

                      QXX         QXY         QYY         QZZ       UP TO R
:VZZ001:            -0.22148     0.19261    -0.43814     0.65962       1.400

:POS002: ATOM   -2 X,Y,Z = 0.14451 0.41337 0.61807  MULT= 6  ZZ=  8.000  O         

       LMMAX 49

:CHA002: TOTAL VALENCE CHARGE INSIDE SPHERE   2 =   5.7264    (RMT=  1.6200 )
:PCS002: PARTIAL CHARGES SPHERE =  2 S,P,D,F,PX,PY,PZ,D-Z2,D-X2Y2,D-XY,D-XZ,D-YZ 
:QTL002: 1.6132 4.0957 0.0131 0.0040 1.3571 1.3745 1.3642 0.0021 0.0029 0.0023 0.0028 0.0029
        Q-s-low E-s-low   Q-p-low E-p-low   Q-d-low E-d-low   Q-f-low E-f-low
:EPL002:  1.5501 -1.3441    0.0191 -1.3547    0.0038 -1.3541    0.0003 -1.3472
        Q-s-hi  E-s-hi    Q-p-hi  E-p-hi    Q-d-hi  E-d-hi    Q-f-hi  E-f-hi 
:EPH002:  0.0631 -0.3162    4.0766 -0.2366    0.0093 -0.3200    0.0036 -0.3030

                      QXX         QXY         QYY         QZZ       UP TO R
:VZZ002:             1.04523    -2.28230    -1.15821     0.11297       1.620

:CHA  : TOTAL VALENCE CHARGE INSIDE UNIT CELL =      48.000000

:SUM  : SUM OF EIGENVALUES =         -25.191858780


        1.ATOM      Si                    4 CORE STATES
       CORE-FORCE in mRy/a.u. = |F|      Fx             Fy             Fz
:FCO001:   1.ATOM      1.460013235363      0.000000000000      0.000000000000      1.460013235363

:1S 001: 1S                -130.571369456 Ry
:2S 001: 2S                  -9.572609721 Ry
:2PP001: 2P*                 -6.375324926 Ry
:2P 001: 2P                  -6.327882308 Ry

        2.ATOM      O                     1 CORE STATES
       CORE-FORCE in mRy/a.u. = |F|      Fx             Fy             Fz
:FCO002:   2.ATOM    296.773602486935    228.295831335450    119.557164025910    147.179037427247

:1S 002: 1S                 -37.114407101 Ry
:CINT001 Core Integral Atom   1    9.922259
:CINT002 Core Integral Atom   2    2.003829

       DENSITY AT NUCLEUS
        JATOM        VALENCE       SEMI-CORE          CORE           TOTAL
:RTO001:   1        5.328400     1886.173589        0.000000     1891.501989
:RTO002:   2       15.201757      303.902303        0.000000      319.104060
     
       CHARGES OF NEW CHARGE DENSITY
:NTO   : INTERSTITIAL CHARGE =    12.316183
:NPC   : PW Pseudocharge     =    26.919805
:NTO001: CHARGE SPHERE  1    =    10.434285
:NTO002: CHARGE SPHERE  2    =     7.730259

:NEC01: NUCLEAR AND ELECTRONIC CHARGE     90.00000    90.00060
     
       CHARGES OF OLD CHARGE DENSITY
:OTO   : INTERSTITIAL CHARGE =    14.975416
:OPC   : PW Pseudocharge     =    26.829437
:OTO001: CHARGE SPHERE  1    =    10.573056
:OTO002: CHARGE SPHERE  2    =     7.217569

:NEC02: NUCLEAR AND ELECTRONIC CHARGE     90.00000    90.00000
     
       CONVERGENCE TEST
:DTO001: DIFFERENCE IN SPHERE  1 =  0.1977733
:DTO002: DIFFERENCE IN SPHERE  2 =  0.5652122

:DIS  :  CHARGE DISTANCE       ( 0.5652122 for atom    2 spin 1)      0.4427326
 PW Mixed is         2149
 
******************************************************
* MULTISECANT MIXING VER9 RELEASE 10.4.0              *
* Standard Mode with controls                        *
* Fixed density scale                                *
* Regularization       1.000E-04                     *
* Trust Upper Limit    5.000E+00                     *
* Max Number of Memory Steps    8                    *
******************************************************
 
:PWTMP   6.1772E+02  5.7600E+02  7.5905E+02
:PLANE:  PW TOTAL      8.6172 DISTAN   7.76E-01  9.00E+00 %
:CHARG:  CLM/ATOM     80.8866 DISTAN   7.36E-01  9.10E-01 %
 
Step History
        DMIX         DMIXT        Red     Pred      Trust     Lambda    MagRel    MagAbs     Beta
  1   3.5000E-02   3.5000E-02 -1.00E+00  1.00E+00 -1.00E+01  1.00E+00  3.50E-02  3.50E-02  1.00E+00
  2   3.5000E-02   3.5000E-02  7.27E-01  1.00E+00 -1.00E+01  1.00E+00  3.50E-02  1.19E-01  1.00E+00
  3   5.9819E-02   5.9819E-02  9.60E-01  1.00E+00 -1.00E+01  7.78E-02  5.98E-02  1.48E-01  1.00E+00
  4   5.4803E-02   5.4803E-02  8.71E-01  9.93E-01  3.33E-01  1.43E+00  5.46E-02  1.30E-01  9.72E-01
  5   1.3701E-01   4.4529E-02 -1.00E+00  8.17E-01  3.88E-01  1.00E+00  8.73E-02  1.81E-01  1.00E+00
:JACOBIANS    1.099E+00   4.363E-01
  
:NORMS:  1/Froebius, Min, Max, Used   0.6128E+00  0.5654E+00  0.1017E+01  0.6220E+00
:INFO :  Number of Memory Steps    4 Skipping    0
:INFO :  SLambda=    1.6609844163  Max    1.6609844163
:PREDicted Charge, CTotal, PW Trust    3.029E-01   1.564E+00   1.321E+00
:PREDicted DMix, Beta, BLim   5.4581E-01  1.5297E+00  1.9306E+00

Eigenvalues, unscaled except for SY+YY
   #     SY Real        SY Imag          SS             YY         SY+YY Real      SY+YY Imag
   1   1.590108E+00   0.000000E+00   1.180767E+00   3.257583E+00   5.761525E+00   0.000000E+00
   2   5.386222E-01   0.000000E+00   3.208037E-01   7.417306E-01   1.773636E+00   0.000000E+00
   3  -9.921343E-16   0.000000E+00   5.723598E-04   6.684861E-04   1.885122E-05   0.000000E+00
   4   6.039802E-04   0.000000E+00  -8.124544E-17   1.786638E-05   1.610912E-03   0.000000E+00
 
:INFO :  Singular value  5.778E+00 Weight  1.000E+00 Projection -5.184E-01
:INFO :  Singular value  1.769E+00 Weight  1.000E+00 Projection -1.323E+00
:INFO :  Singular value  1.612E-03 Weight  9.608E-01 Projection -2.606E+01
:INFO :  Singular value  1.884E-05 Weight  3.333E-03 Projection -2.902E-01
:RANK :  ACTIVE   2.96/4  =  74.10 % ; YY RANK   2.81/4  =  70.28 %
 
Increasing CTO by   1.275
:BLIM :  VZERO Control Off
:TRUST:  Step 5.67E-01  Charge 9.08E-02 (e) CTO  4.15E-01 (e) PW  5.01E-01 (e)
:DTRUS:  Lambda    1.246E+01 Increment    7.276E-12 Iterations   132 DMIX    1.208E-01
:INFOA:  Angle SubSpace to MSR1     38.20
:DIRM :  MEMORY  4/8  SCALE   1.000 RED  0.80 PRED  0.82 NEXT  0.71 
:TRAVE:  Charge 6.45E-02 (e) CTO  3.33E-01 (e) PW  2.36E-01 (e)
:DIRP :  |MSR1|= 1.194E-01 |PRATT|= 7.760E-01 ANGLE=   5.5 DEGREES
:DIRQ :  |MSR1|= 2.202E-01 |PRATT|= 1.472E+00 ANGLE=  15.1 DEGREES
:DIRT :  |MSR1|= 2.505E-01 |PRATT|= 1.664E+00 ANGLE=  13.6 DEGREES
:MIX  :   MSE1   REGULARIZATION:  3.26E-04 GREED: 0.31993  LMStep 0.21  0.1506 CTotal         
     
       CHARGES OF MIXED CHARGE DENSITY
:CTO   : INTERSTITIAL CHARGE =    14.560301
:CPC   : PW Pseudocharge     =    26.847894
:CTO001: CHARGE SPHERE  1    =    10.550424
:CTO002: CHARGE SPHERE  2    =     7.298071

:NEC03: NUCLEAR AND ELECTRONIC CHARGE     90.00000    90.00000

PW CHANGE     H    K    L             Current                    Change               Residue
:PTO001:      0    0    0  5.45524033E-02 0.00000000E+00 -5.226E-04  0.000E+00 -3.387E-03  0.000E+00
:PTO002:      0    0   -1 -5.62541622E-10 0.00000000E+00  1.045E-10  0.000E+00  6.166E-10  0.000E+00
:PTO003:     -1    0    0 -3.88726456E-02 0.00000000E+00  2.507E-04  0.000E+00  1.422E-03  0.000E+00
:PTO004:     -1    0   -1  4.45924648E-02-7.72364127E-02 -4.410E-05  7.638E-05 -2.376E-04  4.116E-04
:PTO005:     -1    0    1  2.66600228E-02 4.61765130E-02 -3.933E-05 -6.811E-05 -1.544E-04 -2.674E-04
:PTO006:      0    0   -2 -2.89735449E-10 0.00000000E+00  4.185E-11  0.000E+00  2.506E-10  0.000E+00
:PTO007:     -2    1    0 -1.60501085E-02-2.41173673E-02 -2.298E-05 -1.345E-04 -8.933E-05 -6.407E-04
:PTO008:     -1   -1    0 -1.60501085E-02 2.41173673E-02 -2.298E-05  1.345E-04 -8.933E-05  6.407E-04
:PTO009:     -1    0   -2  3.88346509E-02 6.72635918E-02  1.962E-04  3.399E-04  9.034E-04  1.565E-03
:PTO010:     -1    0    2  1.12176783E-03-1.94295897E-03  1.697E-05 -2.939E-05 -2.158E-05  3.738E-05
:PTO011:     -2    1   -1 -4.76843615E-02-2.61453615E-02 -3.057E-04 -7.867E-05 -1.585E-03 -1.443E-04
:PTO012:     -1   -1   -1  4.64847274E-02 2.82231886E-02  2.210E-04  2.254E-04  9.177E-04  1.301E-03

:ENE  : ********** TOTAL ENERGY IN Ry =        -2644.49330028

       TOTAL FORCE IN mRy/a.u. = |F|     Fx             Fy             Fz     with/without FOR in case.in2
:FOR001:   1.ATOM          3.877          0.000          0.000         -3.877 partial forces
:FOR002:   2.ATOM        686.472       -529.035       -276.927       -338.640 partial forces
       TOTAL FORCE WITH RESPECT TO GLOBAL CARTESIAN COORDINATES:
:FCA001:   1.ATOM                        -3.357         -1.938          0.000 partial forces
:FCA002:   2.ATOM                      -529.035       -276.927       -338.640 partial forces
       TOTAL FORCE WITH RESPECT TO THE GLOBAL COORDINATE SYSTEM:
:FGL001:   1.ATOM                -3.876856209    -3.876856209     0.000000000 partial forces
:FGL002:   2.ATOM              -610.876812929  -582.365510851  -338.640134907 partial forces
 Flat Integration
 New Mode for Coulomb Integral
 Consistent 3/8+Simpson combinations
 Extension of core to zero
 LDM version in phi
 Fifth-order quadrature in outwin


            ---------
:ITE006:  6. ITERATION
            ---------

:NATO :    2 INDEPENDENT AND    9 TOTAL ATOMS IN UNITCELL
       SUBSTANCE: SiO2 for tests                                              

       LATTICE                      = H   
:POT  : POTENTIAL OPTION EX_PBE EC_PBE VX_PBE VC_PBE
:LAT  : LATTICE CONSTANTS=  9.26193  9.26193 10.21737
:VOL  : UNIT CELL VOLUME =     759.05354
       MODE OF CALCULATION IS       = RELA
       NON-SPINPOLARIZED CALCULATION
:IFFT  : FFT-parameters:   72   72   80 Factor: 2.00


   CONVERGENCE PARAMETER FOR PSEUDOCHARGE: NCON=  9
   MAXIMAL VALUE OF RMT(JATOM)*ABSK(NKK) : RK  =19.43469


:VKCOUL :  VK-COUL convergence: 0.340E-05
       ATOMNUMBER=  1 Si         VCOUL-ZERO = -0.14522E+01
:EFG001:                        EFG         =     0.20901   *10**21  V / m**2
                               V20  TOT/SRF=     0.18101    -0.00814
                               V22  TOT/SRF=     0.04119    -0.00146
                               V22M TOT/SRF=     0.04686    -0.01368
                               V21  TOT/SRF=     0.00000     0.00000
                               V21M TOT/SRF=     0.00000     0.00000

             -0.06331    0.04686    0.00000       -0.04212    0.00000    0.00000
              0.04686   -0.14569    0.00000        0.00000   -0.16689    0.00000
              0.00000    0.00000    0.20901        0.00000    0.00000    0.20901

         MAIN DIRECTIONS OF THE EFG   1.0000 -0.4524  0.0000
                                      0.4524  1.0000  0.0000
                                      0.0000  0.0000  1.0000
:ANG001:  ANGLE WITH OLD X-AXIS =        24.3

:ETA001:                         ASYMM. ETA =     0.59698


       ATOMNUMBER=  2 O          VCOUL-ZERO = -0.16395E-01
:EFG002:                        EFG         =     5.13441   *10**21  V / m**2
                               V20  TOT/SRF=     0.05999     0.02437
                               V22  TOT/SRF=     1.02837     0.58639
                               V22M TOT/SRF=    -2.22630    -1.29190
                               V21  TOT/SRF=    -2.78327    -1.59008
                               V21M TOT/SRF=     2.50012     1.39951

              0.99374   -2.22630   -2.78327        5.13441    0.00000    0.00000
             -2.22630   -1.06301    2.50012        0.00000   -2.07411    0.00000
             -2.78327    2.50012    0.06927        0.00000    0.00000   -3.06029

         MAIN DIRECTIONS OF THE EFG   1.0000  1.0000  0.0018
                                     -0.7253  0.5355  1.0000
                                     -0.9075  0.6739 -0.7973
:ANG002:  ANGLE WITH OLD X-AXIS =        45.0

:ETA002:                         ASYMM. ETA =     0.19207


     HELLMANN-FEYNMAN-FORCE IN mRy/a.u. = |F|  Fx       Fy             Fz
:FHF001:   1.ATOM      8.779764387078      0.000000000000      0.000000000000     -8.779764387078

     HELLMANN-FEYNMAN-FORCE IN mRy/a.u. = |F|  Fx       Fy             Fz
:FHF002:   2.ATOM    873.285177012036   -670.545806926021   -358.140804755274   -429.802844537028

:FIT001: LUSE= 13 SIGMA OF V-XC FIT FOR ATOM  1  0.1052283E-01
:FIT001: LUSE= 13 SIGMA OF V-XC FIT FOR ATOM  1  0.1052283E-01
:FIT002: LUSE= 13 SIGMA OF V-XC FIT FOR ATOM  2  0.9427724E-03
:FIT002: LUSE= 13 SIGMA OF V-XC FIT FOR ATOM  2  0.9427724E-03
:DEN  : DENSITY INTEGRAL  =         -1220.96722886   (Ry)
       ELS_POTENTIAL_AT Z=0 and Z=0.5:   0.05161  -0.09477
       ELS_POTENTIAL_AT Y=0 and Y=0.5:   0.00000   0.00000
[...]
:RANK :  ACTIVE   3.43/5  =  68.53 % ; YY RANK   3.07/5  =  61.30 %
 
Increasing CTO by   1.460
:BLIM :  VZERO Control Off
:TRUST:  Step 9.98E-01  Charge 9.98E-02 (e) CTO  6.66E-01 (e) PW  5.52E-01 (e)
:DTRUS:  Lambda    2.417E+00 Increment    7.276E-12 Iterations   118 DMIX    2.305E-01
:INFOA:  Angle SubSpace to MSR1     22.46
:DIRM :  MEMORY  5/8  SCALE   1.000 RED  0.70 PRED  0.71 NEXT  0.56 
:INFO :  Limited by Atoms F by Step T

:TRAVE:  Charge 8.21E-02 (e) CTO  4.26E-01 (e) PW  3.21E-01 (e)
:DIRP :  |MSR1|= 2.765E-01 |PRATT|= 6.769E-01 ANGLE=   8.9 DEGREES
:DIRQ :  |MSR1|= 2.994E-01 |PRATT|= 9.522E-01 ANGLE=  28.5 DEGREES
:DIRT :  |MSR1|= 4.075E-01 |PRATT|= 1.168E+00 ANGLE=  23.8 DEGREES
:MIX  :   MSE1   REGULARIZATION:  4.40E-04 GREED: 0.35000  LMStep 0.44  0.3488 Charge         
     
       CHARGES OF MIXED CHARGE DENSITY
:CTO   : INTERSTITIAL CHARGE =    14.042255
:CPC   : PW Pseudocharge     =    26.830596
:CTO001: CHARGE SPHERE  1    =    10.523456
:CTO002: CHARGE SPHERE  2    =     7.397896

:NEC03: NUCLEAR AND ELECTRONIC CHARGE     90.00000    90.00000

PW CHANGE     H    K    L             Current                    Change               Residue
:PTO001:      0    0    0  5.38471251E-02 0.00000000E+00 -7.053E-04  0.000E+00 -2.382E-03  0.000E+00
:PTO002:      0    0   -1 -3.47201136E-10 0.00000000E+00  2.153E-10  0.000E+00  5.125E-10  0.000E+00
:PTO003:     -1    0    0 -3.87363562E-02 0.00000000E+00  1.363E-04  0.000E+00  7.792E-04  0.000E+00
:PTO004:     -1    0   -1  4.46377181E-02-7.73147938E-02  4.525E-05 -7.838E-05 -7.584E-05  1.314E-04
:PTO005:     -1    0    1  2.67263343E-02 4.62913678E-02  6.631E-05  1.149E-04  1.326E-05  2.296E-05
:PTO006:      0    0   -2 -2.02702252E-10 0.00000000E+00  8.703E-11  0.000E+00  2.092E-10  0.000E+00
:PTO007:     -2    1    0 -1.59945671E-02-2.41448311E-02  5.554E-05 -2.746E-05  5.213E-05 -1.704E-04
:PTO008:     -1   -1    0 -1.59945671E-02 2.41448311E-02  5.554E-05  2.746E-05  5.213E-05  1.704E-04
:PTO009:     -1    0   -2  3.87928072E-02 6.71911162E-02 -4.184E-05 -7.248E-05  1.042E-04  1.805E-04
:PTO010:     -1    0    2  1.06343852E-03-1.84192964E-03 -5.833E-05  1.010E-04 -1.746E-04  3.025E-04
:PTO011:     -2    1   -1 -4.78180668E-02-2.58850576E-02 -1.337E-04  2.603E-04 -5.716E-04  4.908E-04
:PTO012:     -1   -1   -1  4.63261503E-02 2.84691327E-02 -1.586E-04  2.459E-04 -1.392E-04  7.404E-04

:ENE  : ********** TOTAL ENERGY IN Ry =        -2644.34981363

       TOTAL FORCE IN mRy/a.u. = |F|     Fx             Fy             Fz     with/without FOR in case.in2
:FOR001:   1.ATOM          5.092          0.000          0.000         -5.092 partial forces
:FOR002:   2.ATOM        567.684       -436.051       -233.781       -278.336 partial forces
       TOTAL FORCE WITH RESPECT TO GLOBAL CARTESIAN COORDINATES:
:FCA001:   1.ATOM                        -4.410         -2.546          0.000 partial forces
:FCA002:   2.ATOM                      -436.051       -233.781       -278.336 partial forces
       TOTAL FORCE WITH RESPECT TO THE GLOBAL COORDINATE SYSTEM:
:FGL001:   1.ATOM                -5.091863076    -5.091863076     0.000000000 partial forces
:FGL002:   2.ATOM              -503.508273360  -485.535060285  -278.336332621 partial forces
 Flat Integration
 New Mode for Coulomb Integral
 Consistent 3/8+Simpson combinations
 Extension of core to zero
 LDM version in phi
 Fifth-order quadrature in outwin


            ---------
:ITE007:  7. ITERATION
            ---------

:NATO :    2 INDEPENDENT AND    9 TOTAL ATOMS IN UNITCELL
       SUBSTANCE: SiO2 for tests                                              

       LATTICE                      = H   
:POT  : POTENTIAL OPTION EX_PBE EC_PBE VX_PBE VC_PBE
:LAT  : LATTICE CONSTANTS=  9.26193  9.26193 10.21737
:VOL  : UNIT CELL VOLUME =     759.05354
       MODE OF CALCULATION IS       = RELA
       NON-SPINPOLARIZED CALCULATION
:IFFT  : FFT-parameters:   72   72   80 Factor: 2.00


   CONVERGENCE PARAMETER FOR PSEUDOCHARGE: NCON=  9
   MAXIMAL VALUE OF RMT(JATOM)*ABSK(NKK) : RK  =19.43469


:VKCOUL :  VK-COUL convergence: 0.340E-05
       ATOMNUMBER=  1 Si         VCOUL-ZERO = -0.14535E+01
:EFG001:                        EFG         =     0.45494   *10**21  V / m**2
                               V20  TOT/SRF=     0.39399     0.01082
                               V22  TOT/SRF=     0.10063     0.00091
                               V22M TOT/SRF=     0.09840    -0.01014
                               V21  TOT/SRF=     0.00000     0.00000
                               V21M TOT/SRF=     0.00000     0.00000

             -0.12684    0.09840    0.00000       -0.08673    0.00000    0.00000
              0.09840   -0.32810    0.00000        0.00000   -0.36822    0.00000
              0.00000    0.00000    0.45494        0.00000    0.00000    0.45494

         MAIN DIRECTIONS OF THE EFG   1.0000 -0.4077  0.0000
                                      0.4077  1.0000  0.0000
                                      0.0000  0.0000  1.0000
:ANG001:  ANGLE WITH OLD X-AXIS =        22.2

:ETA001:                         ASYMM. ETA =     0.61874


       ATOMNUMBER=  2 O          VCOUL-ZERO =  0.16948E-01
:EFG002:                        EFG         =     6.39889   *10**21  V / m**2
                               V20  TOT/SRF=     0.08437     0.02489
                               V22  TOT/SRF=     1.28975     0.58033
                               V22M TOT/SRF=    -2.74645    -1.28094
                               V21  TOT/SRF=    -3.46851    -1.57531
                               V21M TOT/SRF=     3.14359     1.38571

              1.24104   -2.74645   -3.46851        6.39889    0.00000    0.00000
             -2.74645   -1.33846    3.14359        0.00000   -2.55373    0.00000
             -3.46851    3.14359    0.09742        0.00000    0.00000   -3.84516

         MAIN DIRECTIONS OF THE EFG   1.0000  1.0000 -0.0094
                                     -0.7257  0.5439  1.0000
                                     -0.9124  0.6634 -0.8056
:ANG002:  ANGLE WITH OLD X-AXIS =        45.0

:ETA002:                         ASYMM. ETA =     0.20182


     HELLMANN-FEYNMAN-FORCE IN mRy/a.u. = |F|  Fx       Fy             Fz
:FHF001:   1.ATOM      8.952599821636      0.000000000000      0.000000000000      8.952599821636

     HELLMANN-FEYNMAN-FORCE IN mRy/a.u. = |F|  Fx       Fy             Fz
:FHF002:   2.ATOM    693.278370654872   -534.890940817003   -278.557970468132   -341.953268354683

:FIT001: LUSE= 13 SIGMA OF V-XC FIT FOR ATOM  1  0.1294476E-01
:FIT001: LUSE= 13 SIGMA OF V-XC FIT FOR ATOM  1  0.1294476E-01
:FIT002: LUSE= 13 SIGMA OF V-XC FIT FOR ATOM  2  0.6268662E-03
:FIT002: LUSE= 13 SIGMA OF V-XC FIT FOR ATOM  2  0.6268662E-03
:DEN  : DENSITY INTEGRAL  =         -1224.00330097   (Ry)
       ELS_POTENTIAL_AT Z=0 and Z=0.5:   0.05555  -0.09989
       ELS_POTENTIAL_AT Y=0 and Y=0.5:   0.00000   0.00000
:VZERO:v0,v0c,v0x  -0.65015   0.05555  -0.70570 v5,v5c,v5x  -0.74059  -0.09989  -0.64069
:VZERY:v0,v0c,v0x  -0.67571   0.00000  -0.67571 v5,v5c,v5x  -0.67571   0.00000  -0.67571
:VZERX:v0,v0c,v0x  -0.12627   0.22768  -0.35395 v5,v5c,v5x  -2.50881  -1.64115  -0.86766
:LMAX-WF:   10   Non-Spherical LMAX:   4

          ATOMIC SPHERE DEPENDENT PARAMETERS FOR ATOM  Si        
:e__0001: OVERALL ENERGY PARAMETER IS   -0.2126
          OVERALL BASIS SET ON ATOM IS LAPW
:E0_0001: E( 0)=   -0.2126
             APW+lo
:E1_0001: E( 1)=   -0.2126
             APW+lo

          ATOMIC SPHERE DEPENDENT PARAMETERS FOR ATOM  O         
:e__0002: OVERALL ENERGY PARAMETER IS   -0.2126
          OVERALL BASIS SET ON ATOM IS LAPW
:E0_0002: E( 0)=    0.1874
             APW+lo
:E0_0002: E( 0)=   -1.0783   E(BOTTOM)=   -2.402   E(TOP)=    0.246  1  2   231
             LOCAL ORBITAL
:E1_0002: E( 1)=   -0.2126
             APW+lo

       K=   0.00000   0.00000   0.00000            1
:RKM  : MATRIX SIZE  1625LOs:  42  RKM= 6.97  WEIGHT= 1.00  PGR:    
       EIGENVALUES ARE:
:EIG00001:      -1.3660743   -1.2559828   -1.2559827   -1.2092143   -1.2071414
:EIG00006:      -1.2071414   -0.5374851   -0.5374851   -0.3330121   -0.3316753
:EIG00011:      -0.3183966   -0.3183965   -0.1486875   -0.1486875   -0.1311099
:EIG00016:      -0.1135606   -0.0460987   -0.0460987   -0.0441308   -0.0103063
:EIG00021:      -0.0103063    0.0117941    0.0396130    0.0396130    0.5194556
:EIG00026:       0.7658277    0.7658277    0.7991255    0.7991255    0.8929990
:EIG00031:       0.9342958    0.9821742    1.0093220    1.0093221    1.0562524
:EIG00036:       1.0562524    1.1142907    1.1821751    1.1855334    1.1855334
:EIG00041:       1.1926081    1.1926081    1.3121268    1.3121268    1.4033615
:EIG00046:       1.4543036    1.4543036
 
       ********************************************************

:KPT   :      NUMBER OF K-POINTS:    94
       Insulator, EF-inconsistency corrected
:GAP (global)   :  0.458488 Ry =     6.238 eV (accurate value if proper k-mesh)
         Bandranges (emin - emax) and occupancy:
:BAN00014:  14   -0.166608   -0.126942  2.00000000
:BAN00015:  15   -0.142297   -0.111355  2.00000000
:BAN00016:  16   -0.113561   -0.081677  2.00000000
:BAN00017:  17   -0.092686   -0.046099  2.00000000
:BAN00018:  18   -0.073666   -0.045792  2.00000000
:BAN00019:  19   -0.069580   -0.010754  2.00000000
:BAN00020:  20   -0.047980   -0.008676  2.00000000
:BAN00021:  21   -0.024907   -0.000779  2.00000000
:BAN00022:  22   -0.000186    0.045595  2.00000000
:BAN00023:  23    0.016120    0.052568  2.00000000
:BAN00024:  24    0.025401    0.060968  2.00000000
:BAN00025:  25    0.519456    0.736831  0.00000000
:BAN00026:  26    0.660837    0.790744  0.00000000
:BAN00027:  27    0.751192    0.805856  0.00000000
:BAN00028:  28    0.765194    0.840443  0.00000000
:BAN00029:  29    0.796577    0.858662  0.00000000
        Energy to separate low and high energystates:   -0.66607


:NOE  : NUMBER OF ELECTRONS          =   48.000

:FER  : F E R M I - ENERGY(TETRAH.M.)=   0.0609676486
:GMA  : POTENTIAL AND CHARGE CUT-OFF  12.00 Ry**.5

:POS001: ATOM   -1 X,Y,Z = 0.46913 0.46913 0.50000  MULT= 3  ZZ= 14.000  Si        

       LMMAX 25
       LM=   0 0  1 0  2 0  2 2 -2 2  3 0  3 2 -3 2  4 0  4 2 -4 2  4 4 -4 4  5 0  5 2 -5 2  5 4
        -5 4  6 0  6 2 -6 2  6 4 -6 4  6 6 -6 6

:CHA001: TOTAL VALENCE CHARGE INSIDE SPHERE   1 =   0.5575    (RMT=  1.4000 )
:PCS001: PARTIAL CHARGES SPHERE =  1 S,P,D,F,PX,PY,PZ,D-Z2,D-X2Y2,D-XY,D-XZ,D-YZ 
:QTL001: 0.1933 0.2526 0.1021 0.0082 0.0848 0.0859 0.0819 0.0122 0.0163 0.0227 0.0259 0.0251
        Q-s-low E-s-low   Q-p-low E-p-low   Q-d-low E-d-low   Q-f-low E-f-low
:EPL001:  0.0537 -1.3067    0.0471 -1.2276    0.0141 -1.2276    0.0016 -1.2735
        Q-s-hi  E-s-hi    Q-p-hi  E-p-hi    Q-d-hi  E-d-hi    Q-f-hi  E-f-hi 
:EPH001:  0.1395 -0.4673    0.2055 -0.3035    0.0880 -0.1520    0.0065 -0.1266

                      QXX         QXY         QYY         QZZ       UP TO R
:VZZ001:            -0.20627     0.19016    -0.53384     0.74011       1.400

:POS002: ATOM   -2 X,Y,Z = 0.14451 0.41337 0.61807  MULT= 6  ZZ=  8.000  O         

       LMMAX 49

:CHA002: TOTAL VALENCE CHARGE INSIDE SPHERE   2 =   5.5417    (RMT=  1.6200 )
:PCS002: PARTIAL CHARGES SPHERE =  2 S,P,D,F,PX,PY,PZ,D-Z2,D-X2Y2,D-XY,D-XZ,D-YZ 
:QTL002: 1.5912 3.9313 0.0144 0.0043 1.3037 1.3181 1.3095 0.0024 0.0032 0.0026 0.0031 0.0031
        Q-s-low E-s-low   Q-p-low E-p-low   Q-d-low E-d-low   Q-f-low E-f-low
:EPL002:  1.5186 -1.2493    0.0200 -1.2620    0.0040 -1.2607    0.0004 -1.2528
        Q-s-hi  E-s-hi    Q-p-hi  E-p-hi    Q-d-hi  E-d-hi    Q-f-hi  E-f-hi 
:EPH002:  0.0727 -0.2427    3.9113 -0.1494    0.0104 -0.2300    0.0039 -0.2174

                      QXX         QXY         QYY         QZZ       UP TO R
:VZZ002:             0.89128    -1.91801    -0.99000     0.09872       1.620

:CHA  : TOTAL VALENCE CHARGE INSIDE UNIT CELL =      48.000000

:SUM  : SUM OF EIGENVALUES =         -21.012225090


        1.ATOM      Si                    4 CORE STATES
       CORE-FORCE in mRy/a.u. = |F|      Fx             Fy             Fz
:FCO001:   1.ATOM     10.612174364128      0.000000000000      0.000000000000    -10.612174364128

:1S 001: 1S                -130.609288302 Ry
:2S 001: 2S                  -9.604826646 Ry
:2PP001: 2P*                 -6.407487962 Ry
:2P 001: 2P                  -6.359992468 Ry

        2.ATOM      O                     1 CORE STATES
       CORE-FORCE in mRy/a.u. = |F|      Fx             Fy             Fz
:FCO002:   2.ATOM    319.942389826496    245.992086576283    128.055404254602    159.539460920884

:1S 002: 1S                 -36.933861074 Ry
:CINT001 Core Integral Atom   1    9.923352
:CINT002 Core Integral Atom   2    2.003762

       DENSITY AT NUCLEUS
        JATOM        VALENCE       SEMI-CORE          CORE           TOTAL
:RTO001:   1        5.768824     1886.312119        0.000000     1892.080943
:RTO002:   2       14.706778      303.931006        0.000000      318.637783
     
       CHARGES OF NEW CHARGE DENSITY
:NTO   : INTERSTITIAL CHARGE =    13.284944
:NPC   : PW Pseudocharge     =    26.647532
:NTO001: CHARGE SPHERE  1    =    10.480881
:NTO002: CHARGE SPHERE  2    =     7.545504

:NEC01: NUCLEAR AND ELECTRONIC CHARGE     90.00000    90.00061
     
       CHARGES OF OLD CHARGE DENSITY
:OTO   : INTERSTITIAL CHARGE =    14.042255
:OPC   : PW Pseudocharge     =    26.830596
:OTO001: CHARGE SPHERE  1    =    10.523456
:OTO002: CHARGE SPHERE  2    =     7.397896

:NEC02: NUCLEAR AND ELECTRONIC CHARGE     90.00000    90.00000
     
       CONVERGENCE TEST
:DTO001: DIFFERENCE IN SPHERE  1 =  0.0702446
:DTO002: DIFFERENCE IN SPHERE  2 =  0.1510008

:DIS  :  CHARGE DISTANCE       ( 0.1510008 for atom    2 spin 1)      0.1240821
 PW Mixed is         2149
 
******************************************************
* MULTISECANT MIXING VER9 RELEASE 10.4.0              *
* Standard Mode with controls                        *
* Fixed density scale                                *
* Regularization       1.000E-04                     *
* Trust Upper Limit    5.000E+00                     *
* Max Number of Memory Steps    8                    *
******************************************************
 
:PWTMP   6.1772E+02  5.7600E+02  7.5905E+02
:PLANE:  PW TOTAL      8.5027 DISTAN   4.60E-01  5.42E+00 %
:CHARG:  CLM/ATOM     80.8368 DISTAN   2.11E-01  2.61E-01 %
 
Step History
        DMIX         DMIXT        Red     Pred      Trust     Lambda    MagRel    MagAbs     Beta
  1   3.5000E-02   3.5000E-02 -1.00E+00  1.00E+00 -1.00E+01  1.00E+00  3.50E-02  3.50E-02  1.00E+00
  2   3.5000E-02   3.5000E-02  7.27E-01  1.00E+00 -1.00E+01  1.00E+00  3.50E-02  1.19E-01  1.00E+00
  3   5.9819E-02   5.9819E-02  9.60E-01  1.00E+00 -1.00E+01  7.78E-02  5.98E-02  1.48E-01  1.00E+00
  4   5.4803E-02   5.4803E-02  8.71E-01  9.93E-01  3.33E-01  1.43E+00  5.46E-02  1.30E-01  9.72E-01
  5   1.3701E-01   4.4529E-02  8.04E-01  8.17E-01  3.88E-01  1.66E+00  8.73E-02  1.81E-01  1.00E+00
  6   3.1993E-01   1.2076E-01  7.02E-01  7.09E-01  5.67E-01  1.93E+00  1.51E-01  2.50E-01  1.00E+00
  7   3.5000E-01   2.3049E-01 -1.00E+00  5.61E-01  9.98E-01  1.00E+00  3.49E-01  4.08E-01  1.00E+00
:JACOBIANS    1.239E+00   1.053E+00
  
:NORMS:  1/Froebius, Min, Max, Used   0.5626E+00  0.4890E+00  0.1015E+01  0.6246E+00
:INFO :  Number of Memory Steps    6 Skipping    0
:INFO :  SLambda=    1.2610012941  Max    1.2610012941
:PREDicted Charge, CTotal, PW Trust    1.949E-01   1.011E+00   1.019E+00
:PREDicted DMix, Beta, BLim   7.3386E-01  1.4542E+00  9.9975E+00

Eigenvalues, unscaled except for SY+YY
   #     SY Real        SY Imag          SS             YY         SY+YY Real      SY+YY Imag
   1   2.038845E+00   0.000000E+00   1.288340E+00   5.388622E+00   7.982072E+00   0.000000E+00
   2   6.123273E-01   0.000000E+00   5.899623E-01   5.666526E-01   1.315270E+00   0.000000E+00
   3   3.586123E-02   0.000000E+00   2.065668E-02   4.419771E-02   9.048727E-02   0.000000E+00
   4   4.415377E-04   0.000000E+00   4.050255E-04   5.211173E-04   1.074953E-03   0.000000E+00
   5  -4.252023E-17   0.000000E+00   5.887738E-07   6.436298E-06   4.125532E-07   0.000000E+00
   6   1.758164E-06   0.000000E+00  -2.119167E-17   3.287750E-07   7.331602E-06   0.000000E+00
 
:INFO :  Singular value  7.998E+00 Weight  1.000E+00 Projection  1.848E-01
:INFO :  Singular value  1.313E+00 Weight  1.000E+00 Projection  6.069E-01
:INFO :  Singular value  9.048E-02 Weight  1.000E+00 Projection -1.201E+00
:INFO :  Singular value  1.081E-03 Weight  8.011E-01 Projection  3.375E+00
:INFO :  Singular value  7.338E-06 Weight  1.854E-04 Projection -5.960E-03
:INFO :  Singular value  4.097E-07 Weight  5.781E-07 Projection -2.488E-05
:RANK :  ACTIVE   3.80/6  =  63.35 % ; YY RANK   3.48/6  =  58.05 %
 
Increasing Charge by   1.667
:BLIM :  VZERO Control Off
:TRUST:  Step 2.54E+00  Charge 1.83E-01 (e) CTO  7.33E-01 (e) PW  6.07E-01 (e)
:DTRUS:  Lambda    4.171E-03 Increment    2.274E-13 Iterations    97 DMIX    3.500E-01
:INFOA:  Angle SubSpace to MSR1      0.04
:DIRM :  MEMORY  6/8  SCALE   1.000 RED  0.53 PRED  0.56 NEXT  0.15 
:TRAVE:  Charge 8.50E-02 (e) CTO  4.37E-01 (e) PW  4.64E-01 (e)
:DIRP :  |MSR1|= 5.146E-01 |PRATT|= 4.605E-01 ANGLE=  11.6 DEGREES
:DIRQ :  |MSR1|= 3.553E-01 |PRATT|= 4.224E-01 ANGLE=  36.6 DEGREES
:DIRT :  |MSR1|= 6.253E-01 |PRATT|= 6.249E-01 ANGLE=  25.5 DEGREES
:MIX  :   MSE1   REGULARIZATION:  5.39E-04 GREED: 0.35000  LMStep 1.00  1.0007 PW             
     
       CHARGES OF MIXED CHARGE DENSITY
:CTO   : INTERSTITIAL CHARGE =    13.592929
:CPC   : PW Pseudocharge     =    26.480360
:CTO001: CHARGE SPHERE  1    =    10.497359
:CTO002: CHARGE SPHERE  2    =     7.485832

:NEC03: NUCLEAR AND ELECTRONIC CHARGE     90.00000    90.00000

PW CHANGE     H    K    L             Current                    Change               Residue
:PTO001:      0    0    0  5.27937590E-02 0.00000000E+00 -1.053E-03  0.000E+00 -1.241E-03  0.000E+00
:PTO002:      0    0   -1 -7.26508092E-11 0.00000000E+00  2.746E-10  0.000E+00  2.974E-10  0.000E+00
:PTO003:     -1    0    0 -3.85291599E-02 0.00000000E+00  2.072E-04  0.000E+00  3.747E-04  0.000E+00
:PTO004:     -1    0   -1  4.44918064E-02-7.70620673E-02 -1.459E-04  2.527E-04 -9.586E-05  1.660E-04
:PTO005:     -1    0    1  2.67407211E-02 4.63162864E-02  1.439E-05  2.492E-05  9.558E-07  1.656E-06
:PTO006:      0    0   -2 -8.77671811E-11 0.00000000E+00  1.149E-10  0.000E+00  1.223E-10  0.000E+00
:PTO007:     -2    1    0 -1.57636130E-02-2.34998127E-02  2.310E-04  6.450E-04  1.325E-04  2.586E-04
:PTO008:     -1   -1    0 -1.57636130E-02 2.34998127E-02  2.310E-04 -6.450E-04  1.325E-04 -2.586E-04
:PTO009:     -1    0   -2  3.75333525E-02 6.50096767E-02 -1.259E-03 -2.181E-03 -5.761E-04 -9.978E-04
:PTO010:     -1    0    2  5.79141582E-04-1.00310269E-03 -4.843E-04  8.388E-04 -2.795E-04  4.841E-04
:PTO011:     -2    1   -1 -4.65561890E-02-2.43543341E-02  1.262E-03  1.531E-03  4.294E-04  8.797E-04
:PTO012:     -1   -1   -1  4.43695659E-02 2.81416763E-02 -1.957E-03 -3.275E-04 -9.766E-04  6.804E-05

:ENE  : ********** TOTAL ENERGY IN Ry =        -2644.27138602

       TOTAL FORCE IN mRy/a.u. = |F|     Fx             Fy             Fz     with/without FOR in case.in2
:FOR001:   1.ATOM          1.660          0.000          0.000         -1.660 partial forces
:FOR002:   2.ATOM        373.348       -288.899       -150.503       -182.414 partial forces
       TOTAL FORCE WITH RESPECT TO GLOBAL CARTESIAN COORDINATES:
:FCA001:   1.ATOM                        -1.437         -0.830          0.000 partial forces
:FCA002:   2.ATOM                      -288.899       -150.503       -182.414 partial forces
       TOTAL FORCE WITH RESPECT TO THE GLOBAL COORDINATE SYSTEM:
:FGL001:   1.ATOM                -1.659574542    -1.659574542     0.000000000 partial forces
:FGL002:   2.ATOM              -333.591662529  -317.298397478  -182.413807434 partial forces
