
:LABEL1: Calculations in /home/cmueller/wien/FZU/src/quartz/quartz
:LABEL2: on cv036 at Wed Jun 12 01:58:26 PM CEST 2024
:LABEL3: using WIEN2k_19.1 (Release 25/6/2019) in /home/cmueller/WIENROOT
:LABEL4: using the command: runsp_lapw
 Flat Integration
 New Mode for Coulomb Integral
 Consistent 3/8+Simpson combinations
 Extension of core to zero
 LDM version in phi
 Fifth-order quadrature in outwin


            ---------
:ITE001:  1. ITERATION
            ---------

:NATO :    2 INDEPENDENT AND    9 TOTAL ATOMS IN UNITCELL
       SUBSTANCE: SiO2 for tests                                              

       LATTICE                      = H   
:POT  : POTENTIAL OPTION EX_PBE EC_PBE VX_PBE VC_PBE
:LAT  : LATTICE CONSTANTS=  9.26193  9.26193 10.21737
:VOL  : UNIT CELL VOLUME =     759.05354
       MODE OF CALCULATION IS       = RELA
       SPINPOLARIZED CALCULATION
:IFFT  : FFT-parameters:   72   72   80 Factor: 2.00


   CONVERGENCE PARAMETER FOR PSEUDOCHARGE: NCON=  9
   MAXIMAL VALUE OF RMT(JATOM)*ABSK(NKK) : RK  =19.43469


:VKCOUL :  VK-COUL convergence: 0.439E-05
       ATOMNUMBER=  1 Si         VCOUL-ZERO = -0.14366E+01
:EFG001:                        EFG         =     0.02023   *10**21  V / m**2
                               V20  TOT/SRF=    -0.01366    -0.01576
                               V22  TOT/SRF=     0.00026     0.00378
                               V22M TOT/SRF=    -0.01234    -0.02031
                               V21  TOT/SRF=     0.00000     0.00000
                               V21M TOT/SRF=     0.00000     0.00000

              0.00815   -0.01234    0.00000        0.02023    0.00000    0.00000
             -0.01234    0.00762    0.00000        0.00000   -0.00446    0.00000
              0.00000    0.00000   -0.01577        0.00000    0.00000   -0.01577

         MAIN DIRECTIONS OF THE EFG   1.0000  0.9788  0.0000
                                     -0.9788  1.0000  0.0000
                                      0.0000  0.0000  1.0000
:ANG001:  ANGLE WITH OLD X-AXIS =        44.4

:ETA001:                         ASYMM. ETA =     0.55936


       ATOMNUMBER=  2 O          VCOUL-ZERO = -0.80426E-01
:EFG002:                        EFG         =     2.34022   *10**21  V / m**2
                               V20  TOT/SRF=     0.01775     0.02253
                               V22  TOT/SRF=     0.46621     0.58167
                               V22M TOT/SRF=    -1.03110    -1.28760
                               V21  TOT/SRF=    -1.27074    -1.58634
                               V21M TOT/SRF=     1.11976     1.39844

              0.45596   -1.03110   -1.27074        2.34022    0.00000    0.00000
             -1.03110   -0.47646    1.11976        0.00000   -0.96512    0.00000
             -1.27074    1.11976    0.02049        0.00000    0.00000   -1.37510

         MAIN DIRECTIONS OF THE EFG   1.0000  1.0000  0.0171
                                     -0.7225  0.5266  1.0000
                                     -0.8966  0.6910 -0.7868
:ANG002:  ANGLE WITH OLD X-AXIS =        45.0

:ETA002:                         ASYMM. ETA =     0.17519


     HELLMANN-FEYNMAN-FORCE IN mRy/a.u. = |F|  Fx       Fy             Fz
:FHF001:   1.ATOM      0.660338428314      0.000000000000      0.000000000000     -0.660338428314

     HELLMANN-FEYNMAN-FORCE IN mRy/a.u. = |F|  Fx       Fy             Fz
:FHF002:   2.ATOM   1081.743219788848   -835.469666171216   -428.244727353585   -537.368852801085

:FIT001: LUSE= 13 SIGMA OF V-XC FIT FOR ATOM  1  0.7083896E-02
:FIT001: LUSE= 13 SIGMA OF V-XC FIT FOR ATOM  1  0.7083896E-02
:FIT002: LUSE= 13 SIGMA OF V-XC FIT FOR ATOM  2  0.1340515E-02
:FIT002: LUSE= 13 SIGMA OF V-XC FIT FOR ATOM  2  0.1340515E-02
:DEN  : DENSITY INTEGRAL  =         -1213.65209575   (Ry)
       ELS_POTENTIAL_AT Z=0 and Z=0.5:   0.04924  -0.09870
       ELS_POTENTIAL_AT Y=0 and Y=0.5:   0.00000   0.00000
:VZERO:v0,v0c,v0x  -0.68174   0.04924  -0.73098 v5,v5c,v5x  -0.78851  -0.09870  -0.68981
:VZERY:v0,v0c,v0x  -0.70684   0.00000  -0.70684 v5,v5c,v5x  -0.70684   0.00000  -0.70684
:VZERX:v0,v0c,v0x  -0.19278   0.24115  -0.43394 v5,v5c,v5x  -2.60401  -1.66125  -0.94276
:LMAX-WF:   10   Non-Spherical LMAX:   4

          ATOMIC SPHERE DEPENDENT PARAMETERS FOR ATOM  Si        
:e__0001: OVERALL ENERGY PARAMETER IS    0.3000
          OVERALL BASIS SET ON ATOM IS LAPW
:E0_0001: E( 0)=    0.3000
             APW+lo
:E1_0001: E( 1)=    0.3000
             APW+lo

          ATOMIC SPHERE DEPENDENT PARAMETERS FOR ATOM  O         
:e__0002: OVERALL ENERGY PARAMETER IS    0.3000
          OVERALL BASIS SET ON ATOM IS LAPW
:E0_0002: E( 0)=    0.7000
             APW+lo
:E0_0002: E( 0)=   -1.3125   E(BOTTOM)=   -2.596   E(TOP)=   -0.029  1  2   227
             LOCAL ORBITAL
:E1_0002: E( 1)=    0.3000
             APW+lo

       K=   0.00000   0.00000   0.00000            1
:RKM  : MATRIX SIZE  1625LOs:  42  RKM= 6.97  WEIGHT= 1.00  PGR:    
       EIGENVALUES ARE:
:EIG00001:      -1.5337335   -1.4411529   -1.4411529   -1.4032324   -1.4020544
:EIG00006:      -1.4020544   -0.6733388   -0.6733388   -0.4965059   -0.4916903
:EIG00011:      -0.4798361   -0.4798361   -0.3064939   -0.3064939   -0.2950819
:EIG00016:      -0.2783848   -0.2312958   -0.2312958   -0.2287494   -0.1966308
:EIG00021:      -0.1966308   -0.1787817   -0.1550107   -0.1550107    0.4492100
:EIG00026:       0.7232531    0.7232531    0.7386762    0.7386762    0.8434397
:EIG00031:       0.8529819    0.9179382    0.9299848    0.9299849    0.9516003
:EIG00036:       0.9516004    1.0301086    1.1219674    1.1340356    1.1340356
:EIG00041:       1.1492873    1.1492873    1.2637802    1.2637802    1.3567079
:EIG00046:       1.4031372    1.4031372    1.5191633    1.5191633    1.6021189
 
:EIG00051:       1.6103445    1.6103445    1.6767738    1.8027086    1.8027086
:EIG00056:       1.8145228    1.8885771    1.9014355    1.9014355    1.9311295
:EIG00061:       1.9986548    1.9986548
       ********************************************************

:KPT   :      NUMBER OF K-POINTS:    94
:LMAX-WF:   10   Non-Spherical LMAX:   4

          ATOMIC SPHERE DEPENDENT PARAMETERS FOR ATOM  Si        
:e__0001: OVERALL ENERGY PARAMETER IS    0.3000
          OVERALL BASIS SET ON ATOM IS LAPW
:E0_0001: E( 0)=    0.3000
             APW+lo
:E1_0001: E( 1)=    0.3000
             APW+lo

          ATOMIC SPHERE DEPENDENT PARAMETERS FOR ATOM  O         
:e__0002: OVERALL ENERGY PARAMETER IS    0.3000
          OVERALL BASIS SET ON ATOM IS LAPW
:E0_0002: E( 0)=    0.7000
             APW+lo
:E0_0002: E( 0)=   -1.3125   E(BOTTOM)=   -2.596   E(TOP)=   -0.029  1  2   227
             LOCAL ORBITAL
:E1_0002: E( 1)=    0.3000
             APW+lo

       K=   0.00000   0.00000   0.00000            1
:RKM  : MATRIX SIZE  1625LOs:  42  RKM= 6.97  WEIGHT= 1.00  PGR:    
       EIGENVALUES ARE:
:EIG00001:      -1.5337335   -1.4411529   -1.4411529   -1.4032324   -1.4020544
:EIG00006:      -1.4020544   -0.6733388   -0.6733388   -0.4965059   -0.4916903
:EIG00011:      -0.4798361   -0.4798361   -0.3064939   -0.3064939   -0.2950819
:EIG00016:      -0.2783848   -0.2312958   -0.2312958   -0.2287494   -0.1966308
:EIG00021:      -0.1966308   -0.1787817   -0.1550107   -0.1550107    0.4492100
:EIG00026:       0.7232531    0.7232531    0.7386762    0.7386762    0.8434397
:EIG00031:       0.8529819    0.9179382    0.9299848    0.9299849    0.9516003
:EIG00036:       0.9516004    1.0301086    1.1219674    1.1340356    1.1340356
:EIG00041:       1.1492873    1.1492873    1.2637802    1.2637802    1.3567079
:EIG00046:       1.4031372    1.4031372    1.5191633    1.5191633    1.6021189
 
:EIG00051:       1.6103445    1.6103445    1.6767738    1.8027086    1.8027086
:EIG00056:       1.8145228    1.8885771    1.9014355    1.9014355    1.9311295
:EIG00061:       1.9986548    1.9986548
       ********************************************************

:KPT   :      NUMBER OF K-POINTS:    94
       Insulator, EF-inconsistency corrected
:GAP (global)   :  0.589871 Ry =     8.026 eV (accurate value if proper k-mesh)
:GAP (this spin):  0.589871 Ry =     8.026 eV (accurate value if proper k-mesh)
         Bandranges (emin - emax) and occupancy:
:BAN00014:  14   -0.319485   -0.291286  1.00000000
:BAN00015:  15   -0.298144   -0.280148  1.00000000
:BAN00016:  16   -0.281269   -0.255186  1.00000000
:BAN00017:  17   -0.264937   -0.231296  1.00000000
:BAN00018:  18   -0.249018   -0.226494  1.00000000
:BAN00019:  19   -0.246308   -0.198169  1.00000000
:BAN00020:  20   -0.227180   -0.195980  1.00000000
:BAN00021:  21   -0.208875   -0.188640  1.00000000
:BAN00022:  22   -0.189077   -0.152528  1.00000000
:BAN00023:  23   -0.176004   -0.146506  1.00000000
:BAN00024:  24   -0.167259   -0.140661  1.00000000
:BAN00025:  25    0.449210    0.653413  0.00000000
:BAN00026:  26    0.573090    0.723253  0.00000000
:BAN00027:  27    0.691184    0.744990  0.00000000
:BAN00028:  28    0.732346    0.785103  0.00000000
:BAN00029:  29    0.738676    0.800058  0.00000000
        Energy to separate low and high energystates:   -0.78952


:NOE  : NUMBER OF ELECTRONS          =   48.000

:FER  : F E R M I - ENERGY(TETRAH.M.)=  -0.1406610888
:GMA  : POTENTIAL AND CHARGE CUT-OFF  12.00 Ry**.5

:POS001: ATOM   -1 X,Y,Z = 0.46913 0.46913 0.50000  MULT= 3  ZZ= 14.000  Si        

       LMMAX 25
       LM=   0 0  1 0  2 0  2 2 -2 2  3 0  3 2 -3 2  4 0  4 2 -4 2  4 4 -4 4  5 0  5 2 -5 2  5 4
        -5 4  6 0  6 2 -6 2  6 4 -6 4  6 6 -6 6

:CHA001: TOTAL VALENCE CHARGE INSIDE SPHERE   1 =   0.2341    (RMT=  1.4000 )
:PCS001: PARTIAL CHARGES SPHERE =  1 S,P,D,F,PX,PY,PZ,D-Z2,D-X2Y2,D-XY,D-XZ,D-YZ 
:QTL001: 0.0815 0.1045 0.0433 0.0041 0.0351 0.0354 0.0340 0.0048 0.0067 0.0097 0.0112 0.0109
        Q-s-low E-s-low   Q-p-low E-p-low   Q-d-low E-d-low   Q-f-low E-f-low
:EPL001:  0.0213 -1.4842    0.0200 -1.4191    0.0066 -1.4190    0.0008 -1.4569
        Q-s-hi  E-s-hi    Q-p-hi  E-p-hi    Q-d-hi  E-d-hi    Q-f-hi  E-f-hi 
:EPH001:  0.0602 -0.6142    0.0845 -0.4687    0.0367 -0.3427    0.0032 -0.3281

                      QXX         QXY         QYY         QZZ       UP TO R
:VZZ001:            -0.10948     0.09613    -0.17476     0.28423       1.400

:POS002: ATOM   -2 X,Y,Z = 0.14451 0.41337 0.61807  MULT= 6  ZZ=  8.000  O         

       LMMAX 49

:CHA002: TOTAL VALENCE CHARGE INSIDE SPHERE   2 =   2.9478    (RMT=  1.6200 )
:PCS002: PARTIAL CHARGES SPHERE =  2 S,P,D,F,PX,PY,PZ,D-Z2,D-X2Y2,D-XY,D-XZ,D-YZ 
:QTL002: 0.8163 2.1236 0.0058 0.0018 0.7033 0.7130 0.7073 0.0009 0.0013 0.0010 0.0013 0.0013
        Q-s-low E-s-low   Q-p-low E-p-low   Q-d-low E-d-low   Q-f-low E-f-low
:EPL002:  0.7891 -1.4366    0.0090 -1.4457    0.0018 -1.4453    0.0002 -1.4392
        Q-s-hi  E-s-hi    Q-p-hi  E-p-hi    Q-d-hi  E-d-hi    Q-f-hi  E-f-hi 
:EPH002:  0.0272 -0.3922    2.1147 -0.3245    0.0041 -0.4097    0.0017 -0.3893

                      QXX         QXY         QYY         QZZ       UP TO R
:VZZ002:             0.62868    -1.39609    -0.69017     0.06149       1.620

:CHA  : TOTAL VALENCE CHARGE INSIDE UNIT CELL =      24.000000

:SUM  : SUM OF EIGENVALUES =         -14.692698481

       Insulator, EF-inconsistency corrected
:GAP (global)   :  0.589871 Ry =     8.026 eV (accurate value if proper k-mesh)
:GAP (this spin):  0.589871 Ry =     8.026 eV (accurate value if proper k-mesh)
         Bandranges (emin - emax) and occupancy:
:BAN00014:  14   -0.319485   -0.291286  1.00000000
:BAN00015:  15   -0.298144   -0.280148  1.00000000
:BAN00016:  16   -0.281269   -0.255186  1.00000000
:BAN00017:  17   -0.264937   -0.231296  1.00000000
:BAN00018:  18   -0.249018   -0.226494  1.00000000
:BAN00019:  19   -0.246308   -0.198169  1.00000000
:BAN00020:  20   -0.227180   -0.195980  1.00000000
:BAN00021:  21   -0.208875   -0.188640  1.00000000
:BAN00022:  22   -0.189077   -0.152528  1.00000000
:BAN00023:  23   -0.176004   -0.146506  1.00000000
:BAN00024:  24   -0.167259   -0.140661  1.00000000
:BAN00025:  25    0.449210    0.653413  0.00000000
:BAN00026:  26    0.573090    0.723253  0.00000000
:BAN00027:  27    0.691184    0.744990  0.00000000
:BAN00028:  28    0.732346    0.785103  0.00000000
:BAN00029:  29    0.738676    0.800058  0.00000000
        Energy to separate low and high energystates:   -0.78952


:NOE  : NUMBER OF ELECTRONS          =   48.000

:FER  : F E R M I - ENERGY(TETRAH.M.)=  -0.1406610888
:GMA  : POTENTIAL AND CHARGE CUT-OFF  12.00 Ry**.5

:POS001: ATOM   -1 X,Y,Z = 0.46913 0.46913 0.50000  MULT= 3  ZZ= 14.000  Si        

       LMMAX 25
       LM=   0 0  1 0  2 0  2 2 -2 2  3 0  3 2 -3 2  4 0  4 2 -4 2  4 4 -4 4  5 0  5 2 -5 2  5 4
        -5 4  6 0  6 2 -6 2  6 4 -6 4  6 6 -6 6

:CHA001: TOTAL VALENCE CHARGE INSIDE SPHERE   1 =   0.2341    (RMT=  1.4000 )
:PCS001: PARTIAL CHARGES SPHERE =  1 S,P,D,F,PX,PY,PZ,D-Z2,D-X2Y2,D-XY,D-XZ,D-YZ 
:QTL001: 0.0815 0.1045 0.0433 0.0041 0.0351 0.0354 0.0340 0.0048 0.0067 0.0097 0.0112 0.0109
        Q-s-low E-s-low   Q-p-low E-p-low   Q-d-low E-d-low   Q-f-low E-f-low
:EPL001:  0.0213 -1.4842    0.0200 -1.4191    0.0066 -1.4190    0.0008 -1.4569
        Q-s-hi  E-s-hi    Q-p-hi  E-p-hi    Q-d-hi  E-d-hi    Q-f-hi  E-f-hi 
:EPH001:  0.0602 -0.6142    0.0845 -0.4687    0.0367 -0.3427    0.0032 -0.3281

                      QXX         QXY         QYY         QZZ       UP TO R
:VZZ001:            -0.10948     0.09613    -0.17476     0.28423       1.400

:POS002: ATOM   -2 X,Y,Z = 0.14451 0.41337 0.61807  MULT= 6  ZZ=  8.000  O         

       LMMAX 49

:CHA002: TOTAL VALENCE CHARGE INSIDE SPHERE   2 =   2.9478    (RMT=  1.6200 )
:PCS002: PARTIAL CHARGES SPHERE =  2 S,P,D,F,PX,PY,PZ,D-Z2,D-X2Y2,D-XY,D-XZ,D-YZ 
:QTL002: 0.8163 2.1236 0.0058 0.0018 0.7033 0.7130 0.7073 0.0009 0.0013 0.0010 0.0013 0.0013
        Q-s-low E-s-low   Q-p-low E-p-low   Q-d-low E-d-low   Q-f-low E-f-low
:EPL002:  0.7891 -1.4366    0.0090 -1.4457    0.0018 -1.4453    0.0002 -1.4392
        Q-s-hi  E-s-hi    Q-p-hi  E-p-hi    Q-d-hi  E-d-hi    Q-f-hi  E-f-hi 
:EPH002:  0.0272 -0.3922    2.1147 -0.3245    0.0041 -0.4097    0.0017 -0.3893

                      QXX         QXY         QYY         QZZ       UP TO R
:VZZ002:             0.62868    -1.39609    -0.69017     0.06149       1.620

:CHA  : TOTAL VALENCE CHARGE INSIDE UNIT CELL =      24.000000

:SUM  : SUM OF EIGENVALUES =         -14.692698481


        1.ATOM      Si                    4 CORE STATES
       CORE-FORCE in mRy/a.u. = |F|      Fx             Fy             Fz
:FCO001:   1.ATOM      1.783675550522      0.000000000000      0.000000000000     -1.783675550522

:1S 001: 1S                -130.525094101 Ry
:2S 001: 2S                  -9.542215991 Ry
:2PP001: 2P*                 -6.344054225 Ry
:2P 001: 2P                  -6.296687983 Ry

        2.ATOM      O                     1 CORE STATES
       CORE-FORCE in mRy/a.u. = |F|      Fx             Fy             Fz
:FCO002:   2.ATOM    276.523919606511    213.560191267185    109.476952742034    137.376561460787

:1S 002: 1S                 -37.323263231 Ry

        1.ATOM      Si                    4 CORE STATES
       CORE-FORCE in mRy/a.u. = |F|      Fx             Fy             Fz
:FCO001:   1.ATOM      1.783675550540      0.000000000000      0.000000000000     -1.783675550540

:1S 001: 1S                -130.525094101 Ry
:2S 001: 2S                  -9.542215991 Ry
:2PP001: 2P*                 -6.344054225 Ry
:2P 001: 2P                  -6.296687983 Ry

        2.ATOM      O                     1 CORE STATES
       CORE-FORCE in mRy/a.u. = |F|      Fx             Fy             Fz
:FCO002:   2.ATOM    276.523919606580    213.560191267143    109.476952742211    137.376561460853

:1S 002: 1S                 -37.323263231 Ry
:CINT001 Core Integral Atom   1 Up    4.960627 Dn   4.960627 Total   9.921255
:CINT002 Core Integral Atom   2 Up    1.001945 Dn   1.001945 Total   2.003890

       DENSITY AT NUCLEUS
        JATOM        VALENCE       SEMI-CORE          CORE           TOTAL
:RTO001:   1        4.830668     1885.991394        0.000000     1890.822061
:RTO002:   2       15.670298      303.971913        0.000000      319.642211

       HYPERFINE FIELDS FOR THOMSON RADIUS
:HFF001:            0.000           0.000           0.000           0.000 (KGAUSS)
:HFF002:           -0.000          -0.000           0.000          -0.000 (KGAUSS)
     
       CHARGES OF NEW CHARGE DENSITY
:NTO   : INTERSTITIAL     UP =     5.717420 DN =     5.717420 TOT =    11.434840
:NPC   : PW Pseudocharge  UP =    13.511002 DN =    13.511002 TOT =    27.022004
:NTO001: CHARGE SPHERE  1 UP =     5.194766 DN =     5.194766 TOT =    10.389533
:NTO002: CHARGE SPHERE  2 UP =     3.949762 DN =     3.949762 TOT =     7.899524

:NEC01: NUCLEAR AND ELECTRONIC CHARGE     90.00000    90.00058
     
       CHARGES OF OLD CHARGE DENSITY
:OTO   : INTERSTITIAL     UP =     7.844840 DN =     7.844840 TOT =    15.689680
:OPC   : PW Pseudocharge  UP =    11.820419 DN =    11.820419 TOT =    23.640838
:OTO001: CHARGE SPHERE  1 UP =     5.305119 DN =     5.305119 TOT =    10.610239
:OTO002: CHARGE SPHERE  2 UP =     3.540138 DN =     3.540138 TOT =     7.080276

:NEC02: NUCLEAR AND ELECTRONIC CHARGE     90.00000    90.00205
     
       CONVERGENCE TEST
:DTO001: DIFFERENCE SPHERE  1 UP =  0.1588931 DN =  0.1588931 TOT =  0.3177863
:DTO002: DIFFERENCE SPHERE  2 UP =  0.4784999 DN =  0.4784999 TOT =  0.9569999

:DIS  :  CHARGE DISTANCE       ( 0.4784999 for atom    2 spin 2)      1.4878574
 PW Mixed is         2149
 
******************************************************
* MULTISECANT MIXING VER9 RELEASE 10.4.0              *
* Standard Mode with controls                        *
* Fixed density scale                                *
* Regularization       1.000E-04                     *
* Trust Upper Limit    5.000E+00                     *
* Max Number of Memory Steps    8                    *
******************************************************
 
:PWTMP   6.1772E+02  5.7600E+02  7.5905E+02
:PLANE:  PW TOTAL     10.0971 DISTAN   3.34E+00  3.31E+01 %
:CHARG:  CLM/ATOM     57.2047 DISTAN   8.67E-01  1.52E+00 %
INFO: Reducing dbase  2.50000E-02 1.48786E+00 2.04955E-02
 
Step History
        DMIX         DMIXT        Red     Pred      Trust     Lambda    MagRel    MagAbs     Beta
  1   3.5000E-02   3.5000E-02 -1.00E+00  1.00E+00 -1.00E+01  1.00E+00  3.50E-02  3.50E-02  1.00E+00
:INFO :  Note, Pratt in use
INFO: Reducing dbase  2.04955E-02 1.48786E+00 1.68027E-02
:TRUST:  Step 4.53E-02  Charge 7.50E-02 (e) CTO  2.69E-01 (e) PW  3.77E-01 (e)
:DIRM :  MEMORY  0/ 8 SCALE   1.000
Performing Pseudo Compensation
Final Pseudo Compensation Rescaling     9.99810E-01
Final Pseudo Compensation Rescaling     9.99810E-01
:MIX  :   PRATT  REGULARIZATION:  1.00E-04 GREED: 0.03020                  
     
       CHARGES OF MIXED CHARGE DENSITY
:CTO   : INTERSTITIAL     UP =     7.779583 DN =     7.779583 TOT =    15.559166
:CPC   : PW Pseudocharge  UP =    12.930893 DN =    12.930893 TOT =    25.861786
:CTO001: CHARGE SPHERE  1 UP =     5.301786 DN =     5.301786 TOT =    10.603573
:CTO002: CHARGE SPHERE  2 UP =     3.552510 DN =     3.552510 TOT =     7.105019

       SPIN MAGNETIC MOMENTS OF MIXED CHARGE DENSITY
:MMINT:  MAGNETIC MOMENT IN INTERSTITIAL  =    0.00000
:MMI001: MAGNETIC MOMENT IN SPHERE   1    =   -0.00000
:MMI002: MAGNETIC MOMENT IN SPHERE   2    =    0.00000
:MMTOT:  SPIN MAGNETIC MOMENT IN CELL     =   -0.00000

:NEC03: NUCLEAR AND ELECTRONIC CHARGE     90.00000    90.00000

PW CHANGE     H    K    L             Current                    Change               Residue
:PUP001:      0    0    0  2.72846046E-02 0.00000000E+00  1.380E-03  0.000E+00 -5.734E-04  0.000E+00
:PUP002:      0    0   -1 -3.96927717E-10-4.18447446E-20  1.157E-11 -4.184E-20  3.830E-10  0.000E+00
:PUP003:     -1    0    0 -1.96137205E-02 0.00000000E+00 -2.164E-04  0.000E+00  9.655E-04  0.000E+00
:PUP004:     -1    0   -1  2.20343375E-02-3.81645909E-02  7.264E-04 -1.258E-03  7.090E-04 -1.228E-03
:PUP005:     -1    0    1  1.32915531E-02 2.30216448E-02  1.771E-04  3.067E-04 -4.623E-06 -8.007E-06
:PUP006:      0    0   -2 -1.82647643E-10 7.51685107E-20 -1.639E-11  7.517E-20  1.255E-10  0.000E+00
:PUP007:     -2    1    0 -7.78770382E-03-1.08809182E-02 -5.041E-04 -2.453E-03 -8.603E-04 -4.144E-03
:PUP008:     -1   -1    0 -7.78770382E-03 1.08809182E-02 -5.041E-04  2.453E-03 -8.603E-04  4.144E-03
:PUP009:     -1    0   -2  1.73860047E-02 3.01134446E-02  4.317E-03  7.478E-03  7.173E-03  1.242E-02
:PUP010:     -1    0    2 -1.50135943E-04 2.60042600E-04  1.654E-03 -2.864E-03  2.458E-03 -4.257E-03
:PUP011:     -2    1   -1 -2.13840661E-02-1.11001934E-02 -5.035E-03 -4.492E-03 -8.677E-03 -6.940E-03
:PUP012:     -1   -1   -1  2.03050822E-02 1.29690481E-02  6.408E-03  2.115E-03  1.035E-02  4.045E-03
  
:PDN001:      0    0    0  2.72846046E-02 0.00000000E+00  1.380E-03  0.000E+00 -5.734E-04  0.000E+00
:PDN002:      0    0   -1 -3.96927717E-10-4.18447446E-20  1.157E-11 -4.184E-20  3.830E-10  0.000E+00
:PDN003:     -1    0    0 -1.96137205E-02 0.00000000E+00 -2.164E-04  0.000E+00  9.655E-04  0.000E+00
:PDN004:     -1    0   -1  2.20343375E-02-3.81645909E-02  7.264E-04 -1.258E-03  7.090E-04 -1.228E-03
:PDN005:     -1    0    1  1.32915531E-02 2.30216448E-02  1.771E-04  3.067E-04 -4.623E-06 -8.007E-06
:PDN006:      0    0   -2 -1.82647643E-10 7.51685107E-20 -1.639E-11  7.517E-20  1.255E-10  0.000E+00
:PDN007:     -2    1    0 -7.78770382E-03-1.08809182E-02 -5.041E-04 -2.453E-03 -8.603E-04 -4.144E-03
:PDN008:     -1   -1    0 -7.78770382E-03 1.08809182E-02 -5.041E-04  2.453E-03 -8.603E-04  4.144E-03
:PDN009:     -1    0   -2  1.73860047E-02 3.01134446E-02  4.317E-03  7.478E-03  7.173E-03  1.242E-02
:PDN010:     -1    0    2 -1.50135943E-04 2.60042600E-04  1.654E-03 -2.864E-03  2.458E-03 -4.257E-03
:PDN011:     -2    1   -1 -2.13840661E-02-1.11001934E-02 -5.035E-03 -4.492E-03 -8.677E-03 -6.940E-03
:PDN012:     -1   -1   -1  2.03050822E-02 1.29690481E-02  6.408E-03  2.115E-03  1.035E-02  4.045E-03

:ENE  : ********** TOTAL ENERGY IN Ry =        -2644.94509318

       TOTAL FORCE IN mRy/a.u. = |F|     Fx             Fy             Fz     with/without FOR in case.in2
:FOR001:   1.ATOM          2.444          0.000          0.000         -2.444 partial forces
:FOR002:   2.ATOM        805.219       -621.909       -318.768       -399.992 partial forces
       TOTAL FORCE WITH RESPECT TO GLOBAL CARTESIAN COORDINATES:
:FCA001:   1.ATOM                        -2.117         -1.222          0.000 partial forces
:FCA002:   2.ATOM                      -621.909       -318.768       -399.992 partial forces
       TOTAL FORCE WITH RESPECT TO THE GLOBAL COORDINATE SYSTEM:
:FGL001:   1.ATOM                -2.444013979    -2.444013979     0.000000000 partial forces
:FGL002:   2.ATOM              -718.119205495  -677.827377359  -399.992291340 partial forces
 Flat Integration
 New Mode for Coulomb Integral
 Consistent 3/8+Simpson combinations
 Extension of core to zero
 LDM version in phi
 Fifth-order quadrature in outwin


            ---------
:ITE002:  2. ITERATION
            ---------

:NATO :    2 INDEPENDENT AND    9 TOTAL ATOMS IN UNITCELL
       SUBSTANCE: SiO2 for tests                                              

       LATTICE                      = H   
:POT  : POTENTIAL OPTION EX_PBE EC_PBE VX_PBE VC_PBE
:LAT  : LATTICE CONSTANTS=  9.26193  9.26193 10.21737
:VOL  : UNIT CELL VOLUME =     759.05354
       MODE OF CALCULATION IS       = RELA
       SPINPOLARIZED CALCULATION
:IFFT  : FFT-parameters:   72   72   80 Factor: 2.00


   CONVERGENCE PARAMETER FOR PSEUDOCHARGE: NCON=  9
   MAXIMAL VALUE OF RMT(JATOM)*ABSK(NKK) : RK  =19.43469


:VKCOUL :  VK-COUL convergence: 0.349E-05
       ATOMNUMBER=  1 Si         VCOUL-ZERO = -0.14340E+01
:EFG001:                        EFG         =    -0.00706   *10**21  V / m**2
                               V20  TOT/SRF=     0.00097    -0.01560
                               V22  TOT/SRF=     0.00154     0.00298
                               V22M TOT/SRF=    -0.00632    -0.01963
                               V21  TOT/SRF=     0.00000     0.00000
                               V21M TOT/SRF=     0.00000     0.00000

              0.00098   -0.00632    0.00000        0.00595    0.00000    0.00000
             -0.00632   -0.00210    0.00000        0.00000   -0.00706    0.00000
              0.00000    0.00000    0.00112        0.00000    0.00000    0.00112

         MAIN DIRECTIONS OF THE EFG   1.0000  0.7853  0.0000
                                     -0.7853  1.0000  0.0000
                                      0.0000  0.0000  1.0000
:ANG001:  ANGLE WITH OLD X-AXIS =        38.1

:ETA001:                         ASYMM. ETA =     0.68350


       ATOMNUMBER=  2 O          VCOUL-ZERO = -0.68561E-01
:EFG002:                        EFG         =     2.56839   *10**21  V / m**2
                               V20  TOT/SRF=     0.02140     0.02276
                               V22  TOT/SRF=     0.51244     0.58276
                               V22M TOT/SRF=    -1.12875    -1.28913
                               V21  TOT/SRF=    -1.39405    -1.58804
                               V21M TOT/SRF=     1.23260     1.39969

              0.50008   -1.12875   -1.39405        2.56839    0.00000    0.00000
             -1.12875   -0.52480    1.23260        0.00000   -1.05539    0.00000
             -1.39405    1.23260    0.02471        0.00000    0.00000   -1.51300

         MAIN DIRECTIONS OF THE EFG   1.0000  1.0000  0.0151
                                     -0.7229  0.5275  1.0000
                                     -0.8983  0.6887 -0.7879
:ANG002:  ANGLE WITH OLD X-AXIS =        45.0

:ETA002:                         ASYMM. ETA =     0.17817


     HELLMANN-FEYNMAN-FORCE IN mRy/a.u. = |F|  Fx       Fy             Fz
:FHF001:   1.ATOM      2.250348046425      0.000000000000      0.000000000000     -2.250348046425

     HELLMANN-FEYNMAN-FORCE IN mRy/a.u. = |F|  Fx       Fy             Fz
:FHF002:   2.ATOM   1068.367580640127   -824.624104341400   -424.709422265929   -530.119119199188

:FIT001: LUSE= 13 SIGMA OF V-XC FIT FOR ATOM  1  0.7464304E-02
:FIT001: LUSE= 13 SIGMA OF V-XC FIT FOR ATOM  1  0.7464304E-02
:FIT002: LUSE= 13 SIGMA OF V-XC FIT FOR ATOM  2  0.1307579E-02
:FIT002: LUSE= 13 SIGMA OF V-XC FIT FOR ATOM  2  0.1307579E-02
:DEN  : DENSITY INTEGRAL  =         -1215.00641628   (Ry)
       ELS_POTENTIAL_AT Z=0 and Z=0.5:   0.04439  -0.08827
       ELS_POTENTIAL_AT Y=0 and Y=0.5:   0.00000   0.00000
:VZERO:v0,v0c,v0x  -0.69457   0.04439  -0.73896 v5,v5c,v5x  -0.76538  -0.08827  -0.67712
:VZERY:v0,v0c,v0x  -0.70703   0.00000  -0.70703 v5,v5c,v5x  -0.70703   0.00000  -0.70703
:VZERX:v0,v0c,v0x  -0.13487   0.26893  -0.40380 v5,v5c,v5x  -2.54917  -1.63657  -0.91260
:LMAX-WF:   10   Non-Spherical LMAX:   4

          ATOMIC SPHERE DEPENDENT PARAMETERS FOR ATOM  Si        
:e__0001: OVERALL ENERGY PARAMETER IS    0.1000
          OVERALL BASIS SET ON ATOM IS LAPW
:E0_0001: E( 0)=    0.1000
             APW+lo
:E1_0001: E( 1)=    0.1000
             APW+lo

          ATOMIC SPHERE DEPENDENT PARAMETERS FOR ATOM  O         
:e__0002: OVERALL ENERGY PARAMETER IS    0.1000
          OVERALL BASIS SET ON ATOM IS LAPW
:E0_0002: E( 0)=    0.5000
             APW+lo
:E0_0002: E( 0)=   -1.2871   E(BOTTOM)=   -2.574   E(TOP)=    0.000  1  2   228
             LOCAL ORBITAL
:E1_0002: E( 1)=    0.1000
             APW+lo

       K=   0.00000   0.00000   0.00000            1
:RKM  : MATRIX SIZE  1625LOs:  42  RKM= 6.97  WEIGHT= 1.00  PGR:    
       EIGENVALUES ARE:
:EIG00001:      -1.5136502   -1.4195422   -1.4195422   -1.3808725   -1.3795989
:EIG00006:      -1.3795989   -0.6564512   -0.6564511   -0.4765797   -0.4722791
:EIG00011:      -0.4601622   -0.4601622   -0.2869931   -0.2869931   -0.2750281
:EIG00016:      -0.2581937   -0.2094966   -0.2094966   -0.2070927   -0.1745438
:EIG00021:      -0.1745438   -0.1563781   -0.1322233   -0.1322233    0.4593856
:EIG00026:       0.7312152    0.7312152    0.7476962    0.7476962    0.8552139
:EIG00031:       0.8603625    0.9275236    0.9417205    0.9417205    0.9640668
:EIG00036:       0.9640668    1.0413990    1.1320007    1.1428549    1.1428549
:EIG00041:       1.1572948    1.1572948    1.2724619    1.2724619    1.3651947
:EIG00046:       1.4123142    1.4123142    1.5271957    1.5271957    1.6082169
 
:EIG00051:       1.6179370    1.6179370    1.6848585
       ********************************************************

:KPT   :      NUMBER OF K-POINTS:    94
:LMAX-WF:   10   Non-Spherical LMAX:   4

          ATOMIC SPHERE DEPENDENT PARAMETERS FOR ATOM  Si        
:e__0001: OVERALL ENERGY PARAMETER IS    0.1000
          OVERALL BASIS SET ON ATOM IS LAPW
:E0_0001: E( 0)=    0.1000
             APW+lo
:E1_0001: E( 1)=    0.1000
             APW+lo

          ATOMIC SPHERE DEPENDENT PARAMETERS FOR ATOM  O         
:e__0002: OVERALL ENERGY PARAMETER IS    0.1000
          OVERALL BASIS SET ON ATOM IS LAPW
:E0_0002: E( 0)=    0.5000
             APW+lo
:E0_0002: E( 0)=   -1.2871   E(BOTTOM)=   -2.574   E(TOP)=    0.000  1  2   228
             LOCAL ORBITAL
:E1_0002: E( 1)=    0.1000
             APW+lo

       K=   0.00000   0.00000   0.00000            1
:RKM  : MATRIX SIZE  1625LOs:  42  RKM= 6.97  WEIGHT= 1.00  PGR:    
       EIGENVALUES ARE:
:EIG00001:      -1.5136502   -1.4195422   -1.4195422   -1.3808725   -1.3795989
:EIG00006:      -1.3795989   -0.6564512   -0.6564511   -0.4765797   -0.4722791
:EIG00011:      -0.4601622   -0.4601622   -0.2869931   -0.2869931   -0.2750281
:EIG00016:      -0.2581937   -0.2094966   -0.2094966   -0.2070927   -0.1745438
:EIG00021:      -0.1745438   -0.1563781   -0.1322233   -0.1322233    0.4593856
:EIG00026:       0.7312152    0.7312152    0.7476962    0.7476962    0.8552139
:EIG00031:       0.8603625    0.9275236    0.9417205    0.9417205    0.9640668
:EIG00036:       0.9640668    1.0413990    1.1320007    1.1428549    1.1428549
:EIG00041:       1.1572948    1.1572948    1.2724619    1.2724619    1.3651947
:EIG00046:       1.4123142    1.4123142    1.5271957    1.5271957    1.6082169
 
:EIG00051:       1.6179370    1.6179370    1.6848585
       ********************************************************

:KPT   :      NUMBER OF K-POINTS:    94
       Insulator, EF-inconsistency corrected
:GAP (global)   :  0.576701 Ry =     7.846 eV (accurate value if proper k-mesh)
:GAP (this spin):  0.576701 Ry =     7.846 eV (accurate value if proper k-mesh)
         Bandranges (emin - emax) and occupancy:
:BAN00014:  14   -0.300473   -0.271196  1.00000000
:BAN00015:  15   -0.278760   -0.259731  1.00000000
:BAN00016:  16   -0.260930   -0.234156  1.00000000
:BAN00017:  17   -0.244188   -0.209497  1.00000000
:BAN00018:  18   -0.228006   -0.205004  1.00000000
:BAN00019:  19   -0.225311   -0.176039  1.00000000
:BAN00020:  20   -0.205771   -0.173899  1.00000000
:BAN00021:  21   -0.187024   -0.166415  1.00000000
:BAN00022:  22   -0.166794   -0.129482  1.00000000
:BAN00023:  23   -0.153527   -0.123307  1.00000000
:BAN00024:  24   -0.144675   -0.117316  1.00000000
:BAN00025:  25    0.459386    0.664407  0.00000000
:BAN00026:  26    0.584746    0.731215  0.00000000
:BAN00027:  27    0.702304    0.754090  0.00000000
:BAN00028:  28    0.739795    0.794401  0.00000000
:BAN00029:  29    0.747696    0.809385  0.00000000
        Energy to separate low and high energystates:   -0.77384


:NOE  : NUMBER OF ELECTRONS          =   48.000

:FER  : F E R M I - ENERGY(TETRAH.M.)=  -0.1173158805
:GMA  : POTENTIAL AND CHARGE CUT-OFF  12.00 Ry**.5

:POS001: ATOM   -1 X,Y,Z = 0.46913 0.46913 0.50000  MULT= 3  ZZ= 14.000  Si        

       LMMAX 25
       LM=   0 0  1 0  2 0  2 2 -2 2  3 0  3 2 -3 2  4 0  4 2 -4 2  4 4 -4 4  5 0  5 2 -5 2  5 4
        -5 4  6 0  6 2 -6 2  6 4 -6 4  6 6 -6 6

:CHA001: TOTAL VALENCE CHARGE INSIDE SPHERE   1 =   0.2385    (RMT=  1.4000 )
:PCS001: PARTIAL CHARGES SPHERE =  1 S,P,D,F,PX,PY,PZ,D-Z2,D-X2Y2,D-XY,D-XZ,D-YZ 
:QTL001: 0.0831 0.1066 0.0440 0.0041 0.0359 0.0361 0.0346 0.0049 0.0068 0.0098 0.0114 0.0111
        Q-s-low E-s-low   Q-p-low E-p-low   Q-d-low E-d-low   Q-f-low E-f-low
:EPL001:  0.0218 -1.4633    0.0203 -1.3969    0.0066 -1.3969    0.0008 -1.4354
        Q-s-hi  E-s-hi    Q-p-hi  E-p-hi    Q-d-hi  E-d-hi    Q-f-hi  E-f-hi 
:EPH001:  0.0613 -0.5963    0.0863 -0.4488    0.0374 -0.3203    0.0032 -0.3047

                      QXX         QXY         QYY         QZZ       UP TO R
:VZZ001:            -0.11060     0.09664    -0.18335     0.29395       1.400

:POS002: ATOM   -2 X,Y,Z = 0.14451 0.41337 0.61807  MULT= 6  ZZ=  8.000  O         

       LMMAX 49

:CHA002: TOTAL VALENCE CHARGE INSIDE SPHERE   2 =   2.9317    (RMT=  1.6200 )
:PCS002: PARTIAL CHARGES SPHERE =  2 S,P,D,F,PX,PY,PZ,D-Z2,D-X2Y2,D-XY,D-XZ,D-YZ 
:QTL002: 0.8146 2.1091 0.0060 0.0019 0.6985 0.7081 0.7025 0.0009 0.0013 0.0011 0.0013 0.0013
        Q-s-low E-s-low   Q-p-low E-p-low   Q-d-low E-d-low   Q-f-low E-f-low
:EPL002:  0.7866 -1.4148    0.0091 -1.4242    0.0018 -1.4238    0.0002 -1.4176
        Q-s-hi  E-s-hi    Q-p-hi  E-p-hi    Q-d-hi  E-d-hi    Q-f-hi  E-f-hi 
:EPH002:  0.0280 -0.3737    2.1000 -0.3036    0.0042 -0.3886    0.0017 -0.3688

                      QXX         QXY         QYY         QZZ       UP TO R
:VZZ002:             0.60779    -1.34566    -0.66922     0.06143       1.620

:CHA  : TOTAL VALENCE CHARGE INSIDE UNIT CELL =      24.000000

:SUM  : SUM OF EIGENVALUES =         -14.193531049

       Insulator, EF-inconsistency corrected
:GAP (global)   :  0.576701 Ry =     7.846 eV (accurate value if proper k-mesh)
:GAP (this spin):  0.576701 Ry =     7.846 eV (accurate value if proper k-mesh)
         Bandranges (emin - emax) and occupancy:
:BAN00014:  14   -0.300473   -0.271196  1.00000000
:BAN00015:  15   -0.278760   -0.259731  1.00000000
:BAN00016:  16   -0.260930   -0.234156  1.00000000
:BAN00017:  17   -0.244188   -0.209497  1.00000000
:BAN00018:  18   -0.228006   -0.205004  1.00000000
:BAN00019:  19   -0.225311   -0.176039  1.00000000
:BAN00020:  20   -0.205771   -0.173899  1.00000000
:BAN00021:  21   -0.187024   -0.166415  1.00000000
:BAN00022:  22   -0.166794   -0.129482  1.00000000
:BAN00023:  23   -0.153527   -0.123307  1.00000000
:BAN00024:  24   -0.144675   -0.117316  1.00000000
:BAN00025:  25    0.459386    0.664407  0.00000000
:BAN00026:  26    0.584746    0.731215  0.00000000
:BAN00027:  27    0.702304    0.754090  0.00000000
:BAN00028:  28    0.739795    0.794401  0.00000000
:BAN00029:  29    0.747696    0.809385  0.00000000
        Energy to separate low and high energystates:   -0.77384


:NOE  : NUMBER OF ELECTRONS          =   48.000

:FER  : F E R M I - ENERGY(TETRAH.M.)=  -0.1173158805
:GMA  : POTENTIAL AND CHARGE CUT-OFF  12.00 Ry**.5

:POS001: ATOM   -1 X,Y,Z = 0.46913 0.46913 0.50000  MULT= 3  ZZ= 14.000  Si        

       LMMAX 25
       LM=   0 0  1 0  2 0  2 2 -2 2  3 0  3 2 -3 2  4 0  4 2 -4 2  4 4 -4 4  5 0  5 2 -5 2  5 4
        -5 4  6 0  6 2 -6 2  6 4 -6 4  6 6 -6 6

:CHA001: TOTAL VALENCE CHARGE INSIDE SPHERE   1 =   0.2385    (RMT=  1.4000 )
:PCS001: PARTIAL CHARGES SPHERE =  1 S,P,D,F,PX,PY,PZ,D-Z2,D-X2Y2,D-XY,D-XZ,D-YZ 
:QTL001: 0.0831 0.1066 0.0440 0.0041 0.0359 0.0361 0.0346 0.0049 0.0068 0.0098 0.0114 0.0111
        Q-s-low E-s-low   Q-p-low E-p-low   Q-d-low E-d-low   Q-f-low E-f-low
:EPL001:  0.0218 -1.4633    0.0203 -1.3969    0.0066 -1.3969    0.0008 -1.4354
        Q-s-hi  E-s-hi    Q-p-hi  E-p-hi    Q-d-hi  E-d-hi    Q-f-hi  E-f-hi 
:EPH001:  0.0613 -0.5963    0.0863 -0.4488    0.0374 -0.3203    0.0032 -0.3047

                      QXX         QXY         QYY         QZZ       UP TO R
:VZZ001:            -0.11060     0.09664    -0.18335     0.29395       1.400

:POS002: ATOM   -2 X,Y,Z = 0.14451 0.41337 0.61807  MULT= 6  ZZ=  8.000  O         

       LMMAX 49

:CHA002: TOTAL VALENCE CHARGE INSIDE SPHERE   2 =   2.9317    (RMT=  1.6200 )
:PCS002: PARTIAL CHARGES SPHERE =  2 S,P,D,F,PX,PY,PZ,D-Z2,D-X2Y2,D-XY,D-XZ,D-YZ 
:QTL002: 0.8146 2.1091 0.0060 0.0019 0.6985 0.7081 0.7025 0.0009 0.0013 0.0011 0.0013 0.0013
        Q-s-low E-s-low   Q-p-low E-p-low   Q-d-low E-d-low   Q-f-low E-f-low
:EPL002:  0.7866 -1.4148    0.0091 -1.4242    0.0018 -1.4238    0.0002 -1.4176
        Q-s-hi  E-s-hi    Q-p-hi  E-p-hi    Q-d-hi  E-d-hi    Q-f-hi  E-f-hi 
:EPH002:  0.0280 -0.3737    2.1000 -0.3036    0.0042 -0.3886    0.0017 -0.3688

                      QXX         QXY         QYY         QZZ       UP TO R
:VZZ002:             0.60779    -1.34566    -0.66922     0.06143       1.620

:CHA  : TOTAL VALENCE CHARGE INSIDE UNIT CELL =      24.000000

:SUM  : SUM OF EIGENVALUES =         -14.193531049


        1.ATOM      Si                    4 CORE STATES
       CORE-FORCE in mRy/a.u. = |F|      Fx             Fy             Fz
:FCO001:   1.ATOM      0.621715045879      0.000000000000      0.000000000000     -0.621715045879

:1S 001: 1S                -130.530189674 Ry
:2S 001: 2S                  -9.543944195 Ry
:2PP001: 2P*                 -6.345982350 Ry
:2P 001: 2P                  -6.298600714 Ry

        2.ATOM      O                     1 CORE STATES
       CORE-FORCE in mRy/a.u. = |F|      Fx             Fy             Fz
:FCO002:   2.ATOM    280.248982695556    216.244065460908    111.435099965647    139.140989469239

:1S 002: 1S                 -37.279254380 Ry

        1.ATOM      Si                    4 CORE STATES
       CORE-FORCE in mRy/a.u. = |F|      Fx             Fy             Fz
:FCO001:   1.ATOM      0.621715046511      0.000000000000      0.000000000000     -0.621715046511

:1S 001: 1S                -130.530189674 Ry
:2S 001: 2S                  -9.543944195 Ry
:2PP001: 2P*                 -6.345982350 Ry
:2P 001: 2P                  -6.298600714 Ry

        2.ATOM      O                     1 CORE STATES
       CORE-FORCE in mRy/a.u. = |F|      Fx             Fy             Fz
:FCO002:   2.ATOM    280.248982695626    216.244065460884    111.435099965790    139.140989469302

:1S 002: 1S                 -37.279254380 Ry
:CINT001 Core Integral Atom   1 Up    4.960721 Dn   4.960721 Total   9.921442
:CINT002 Core Integral Atom   2 Up    1.001939 Dn   1.001939 Total   2.003879

       DENSITY AT NUCLEUS
        JATOM        VALENCE       SEMI-CORE          CORE           TOTAL
:RTO001:   1        4.944464     1886.027682        0.000000     1890.972146
:RTO002:   2       15.585692      303.956139        0.000000      319.541831

       HYPERFINE FIELDS FOR THOMSON RADIUS
:HFF001:            0.000          -0.000           0.000          -0.000 (KGAUSS)
:HFF002:           -0.000          -0.000           0.000          -0.000 (KGAUSS)
     
       CHARGES OF NEW CHARGE DENSITY
:NTO   : INTERSTITIAL     UP =     5.800688 DN =     5.800688 TOT =    11.601377
:NPC   : PW Pseudocharge  UP =    13.522032 DN =    13.522032 TOT =    27.044064
:NTO001: CHARGE SPHERE  1 UP =     5.199239 DN =     5.199239 TOT =    10.398479
:NTO002: CHARGE SPHERE  2 UP =     3.933648 DN =     3.933648 TOT =     7.867296

:NEC01: NUCLEAR AND ELECTRONIC CHARGE     90.00000    90.00059
     
       CHARGES OF OLD CHARGE DENSITY
:OTO   : INTERSTITIAL     UP =     7.779583 DN =     7.779583 TOT =    15.559166
:OPC   : PW Pseudocharge  UP =    12.930893 DN =    12.930893 TOT =    25.861786
:OTO001: CHARGE SPHERE  1 UP =     5.301786 DN =     5.301786 TOT =    10.603573
:OTO002: CHARGE SPHERE  2 UP =     3.552510 DN =     3.552510 TOT =     7.105019

:NEC02: NUCLEAR AND ELECTRONIC CHARGE     90.00000    90.00000
     
       CONVERGENCE TEST
:DTO001: DIFFERENCE SPHERE  1 UP =  0.1465669 DN =  0.1465669 TOT =  0.2931337
:DTO002: DIFFERENCE SPHERE  2 UP =  0.4477566 DN =  0.4477566 TOT =  0.8955133

:DIS  :  CHARGE DISTANCE       ( 0.4477566 for atom    2 spin 1)      1.3894402
 PW Mixed is         2149
 
******************************************************
* MULTISECANT MIXING VER9 RELEASE 10.4.0              *
* Slow Mode, cautious                                *
* Fixed density scale                                *
* Regularization       1.000E-04                     *
* Step Trust Radius    0.75000                       *
* Trust Upper Limit    2.000E+00                     *
* Max Number of Memory Steps   12                    *
******************************************************
 
:PWTMP   6.1772E+02  5.7600E+02  7.5905E+02
:PLANE:  PW TOTAL     11.5381 DISTAN   1.43E+00  1.24E+01 %
:CHARG:  CLM/ATOM     57.2038 DISTAN   8.11E-01  1.42E+00 %
INFO: Reducing dbase  2.00000E-02 1.38944E+00 1.69672E-02
 
Step History
        DMIX         DMIXT        Red     Pred      Trust     Lambda    MagRel    MagAbs     Beta
  1   3.5000E-02   3.5000E-02 -1.00E+00  1.00E+00 -1.00E+01  1.00E+00  3.50E-02  3.50E-02  1.00E+00
  2   3.0202E-02   3.0202E-02 -1.00E+00  1.00E+00 -1.00E+01  1.00E+00  3.02E-02  7.27E-02  1.00E+00
:JACOBIANS    4.920E-01   9.919E-04
  
:TRUST:  Step 4.47E-02  Charge 7.50E-02 (e) CTO  2.69E-01 (e) PW  3.77E-01 (e)
:DIRM :  MEMORY  1/12 SCALE   1.000
:MIX  :   PRATT  REGULARIZATION:  1.00E-04 GREED: 0.04466  Expand 1.48  0.0447                
     
       CHARGES OF MIXED CHARGE DENSITY
:CTO   : INTERSTITIAL     UP =     7.754350 DN =     7.754350 TOT =    15.508700
:CPC   : PW Pseudocharge  UP =    13.367749 DN =    13.367749 TOT =    26.735498
:CTO001: CHARGE SPHERE  1 UP =     5.300477 DN =     5.300477 TOT =    10.600954
:CTO002: CHARGE SPHERE  2 UP =     3.557370 DN =     3.557370 TOT =     7.114740

       SPIN MAGNETIC MOMENTS OF MIXED CHARGE DENSITY
:MMINT:  MAGNETIC MOMENT IN INTERSTITIAL  =    0.00000
:MMI001: MAGNETIC MOMENT IN SPHERE   1    =   -0.00000
:MMI002: MAGNETIC MOMENT IN SPHERE   2    =    0.00000
:MMTOT:  SPIN MAGNETIC MOMENT IN CELL     =    0.00000

:NEC03: NUCLEAR AND ELECTRONIC CHARGE     90.00000    90.00000

PW CHANGE     H    K    L             Current                    Change               Residue
:PUP001:      0    0    0  2.78268892E-02 0.00000000E+00  5.423E-04  0.000E+00 -1.830E-03  0.000E+00
:PUP002:      0    0   -1 -3.92383337E-10 0.00000000E+00  4.544E-12  0.000E+00  3.715E-10  0.000E+00
:PUP003:     -1    0    0 -1.96987172E-02 0.00000000E+00 -8.500E-05  0.000E+00  1.082E-03  0.000E+00
:PUP004:     -1    0   -1  2.23197181E-02-3.86588849E-02  2.854E-04 -4.943E-04  4.621E-05 -8.003E-05
:PUP005:     -1    0    1  1.33611252E-02 2.31421471E-02  6.957E-05  1.205E-04 -1.343E-04 -2.326E-04
:PUP006:      0    0   -2 -1.89085349E-10 0.00000000E+00 -6.438E-12  0.000E+00  1.420E-10  0.000E+00
:PUP007:     -2    1    0 -7.98575282E-03-1.18445274E-02 -1.980E-04 -9.636E-04 -3.532E-04 -1.667E-03
:PUP008:     -1   -1    0 -7.98575282E-03 1.18445274E-02 -1.980E-04  9.636E-04 -3.532E-04  1.667E-03
:PUP009:     -1    0   -2  1.90820937E-02 3.30511574E-02  1.696E-03  2.938E-03  2.808E-03  4.864E-03
:PUP010:     -1    0    2  4.99549407E-04-8.65244995E-04  6.497E-04 -1.125E-03  7.876E-04 -1.364E-03
:PUP011:     -2    1   -1 -2.33620780E-02-1.28647948E-02 -1.978E-03 -1.765E-03 -3.591E-03 -2.396E-03
:PUP012:     -1   -1   -1  2.28222778E-02 1.37997561E-02  2.517E-03  8.307E-04  3.871E-03  1.911E-03
  
:PDN001:      0    0    0  2.78268892E-02 0.00000000E+00  5.423E-04  0.000E+00 -1.830E-03  0.000E+00
:PDN002:      0    0   -1 -3.92383337E-10 0.00000000E+00  4.544E-12  0.000E+00  3.715E-10  0.000E+00
:PDN003:     -1    0    0 -1.96987172E-02 0.00000000E+00 -8.500E-05  0.000E+00  1.082E-03  0.000E+00
:PDN004:     -1    0   -1  2.23197181E-02-3.86588849E-02  2.854E-04 -4.943E-04  4.621E-05 -8.003E-05
:PDN005:     -1    0    1  1.33611252E-02 2.31421471E-02  6.957E-05  1.205E-04 -1.343E-04 -2.326E-04
:PDN006:      0    0   -2 -1.89085349E-10 0.00000000E+00 -6.438E-12  0.000E+00  1.420E-10  0.000E+00
:PDN007:     -2    1    0 -7.98575282E-03-1.18445274E-02 -1.980E-04 -9.636E-04 -3.532E-04 -1.667E-03
:PDN008:     -1   -1    0 -7.98575282E-03 1.18445274E-02 -1.980E-04  9.636E-04 -3.532E-04  1.667E-03
:PDN009:     -1    0   -2  1.90820937E-02 3.30511574E-02  1.696E-03  2.938E-03  2.808E-03  4.864E-03
:PDN010:     -1    0    2  4.99549407E-04-8.65244995E-04  6.497E-04 -1.125E-03  7.876E-04 -1.364E-03
:PDN011:     -2    1   -1 -2.33620780E-02-1.28647948E-02 -1.978E-03 -1.765E-03 -3.591E-03 -2.396E-03
:PDN012:     -1   -1   -1  2.28222778E-02 1.37997561E-02  2.517E-03  8.307E-04  3.871E-03  1.911E-03

:ENE  : ********** TOTAL ENERGY IN Ry =        -2644.84843682

       TOTAL FORCE IN mRy/a.u. = |F|     Fx             Fy             Fz     with/without FOR in case.in2
:FOR001:   1.ATOM          2.872          0.000          0.000         -2.872 partial forces
:FOR002:   2.ATOM        788.119       -608.380       -313.274       -390.978 partial forces
       TOTAL FORCE WITH RESPECT TO GLOBAL CARTESIAN COORDINATES:
:FCA001:   1.ATOM                        -2.487         -1.436          0.000 partial forces
:FCA002:   2.ATOM                      -608.380       -313.274       -390.978 partial forces
       TOTAL FORCE WITH RESPECT TO THE GLOBAL COORDINATE SYSTEM:
:FGL001:   1.ATOM                -2.872063093    -2.872063093     0.000000000 partial forces
:FGL002:   2.ATOM              -702.496758435  -664.522701517  -390.978129730 partial forces
 Flat Integration
 New Mode for Coulomb Integral
 Consistent 3/8+Simpson combinations
 Extension of core to zero
 LDM version in phi
 Fifth-order quadrature in outwin


            ---------
:ITE003:  3. ITERATION
            ---------

:NATO :    2 INDEPENDENT AND    9 TOTAL ATOMS IN UNITCELL
       SUBSTANCE: SiO2 for tests                                              

       LATTICE                      = H   
:POT  : POTENTIAL OPTION EX_PBE EC_PBE VX_PBE VC_PBE
:LAT  : LATTICE CONSTANTS=  9.26193  9.26193 10.21737
:VOL  : UNIT CELL VOLUME =     759.05354
       MODE OF CALCULATION IS       = RELA
       SPINPOLARIZED CALCULATION
:IFFT  : FFT-parameters:   72   72   80 Factor: 2.00


   CONVERGENCE PARAMETER FOR PSEUDOCHARGE: NCON=  9
   MAXIMAL VALUE OF RMT(JATOM)*ABSK(NKK) : RK  =19.43469


:VKCOUL :  VK-COUL convergence: 0.341E-05
       ATOMNUMBER=  1 Si         VCOUL-ZERO = -0.14331E+01
:EFG001:                        EFG         =    -0.00833   *10**21  V / m**2
                               V20  TOT/SRF=     0.00672    -0.01553
                               V22  TOT/SRF=     0.00204     0.00267
                               V22M TOT/SRF=    -0.00395    -0.01936
                               V21  TOT/SRF=     0.00000     0.00000
                               V21M TOT/SRF=     0.00000     0.00000

             -0.00183   -0.00395    0.00000        0.00057    0.00000    0.00000
             -0.00395   -0.00592    0.00000        0.00000   -0.00833    0.00000
              0.00000    0.00000    0.00775        0.00000    0.00000    0.00775

         MAIN DIRECTIONS OF THE EFG   1.0000  0.6089  0.0000
                                     -0.6089  1.0000  0.0000
                                      0.0000  0.0000  1.0000
:ANG001:  ANGLE WITH OLD X-AXIS =        31.3

:ETA001:                         ASYMM. ETA =     0.86239


       ATOMNUMBER=  2 O          VCOUL-ZERO = -0.63909E-01
:EFG002:                        EFG         =     2.65822   *10**21  V / m**2
                               V20  TOT/SRF=     0.02284     0.02285
                               V22  TOT/SRF=     0.53064     0.58323
                               V22M TOT/SRF=    -1.16720    -1.28981
                               V21  TOT/SRF=    -1.44260    -1.58881
                               V21M TOT/SRF=     1.27703     1.40028

              0.51746   -1.16720   -1.44260        2.65822    0.00000    0.00000
             -1.16720   -0.54383    1.27703        0.00000   -1.09093    0.00000
             -1.44260    1.27703    0.02637        0.00000    0.00000   -1.56729

         MAIN DIRECTIONS OF THE EFG   1.0000  1.0000  0.0144
                                     -0.7230  0.5278  1.0000
                                     -0.8990  0.6879 -0.7883
:ANG002:  ANGLE WITH OLD X-AXIS =        45.0

:ETA002:                         ASYMM. ETA =     0.17920


     HELLMANN-FEYNMAN-FORCE IN mRy/a.u. = |F|  Fx       Fy             Fz
:FHF001:   1.ATOM      2.868699708960      0.000000000000      0.000000000000     -2.868699708960

     HELLMANN-FEYNMAN-FORCE IN mRy/a.u. = |F|  Fx       Fy             Fz
:FHF002:   2.ATOM   1063.222634239356   -820.447075117546   -423.365116956803   -527.324325850885

:FIT001: LUSE= 13 SIGMA OF V-XC FIT FOR ATOM  1  0.7614378E-02
:FIT001: LUSE= 13 SIGMA OF V-XC FIT FOR ATOM  1  0.7614378E-02
:FIT002: LUSE= 13 SIGMA OF V-XC FIT FOR ATOM  2  0.1294256E-02
:FIT002: LUSE= 13 SIGMA OF V-XC FIT FOR ATOM  2  0.1294256E-02
:DEN  : DENSITY INTEGRAL  =         -1215.53577839   (Ry)
       ELS_POTENTIAL_AT Z=0 and Z=0.5:   0.04249  -0.08417
       ELS_POTENTIAL_AT Y=0 and Y=0.5:   0.00000   0.00000
:VZERO:v0,v0c,v0x  -0.69913   0.04249  -0.74163 v5,v5c,v5x  -0.75140  -0.08417  -0.66723
:VZERY:v0,v0c,v0x  -0.70583   0.00000  -0.70583 v5,v5c,v5x  -0.70583   0.00000  -0.70583
:VZERX:v0,v0c,v0x  -0.10289   0.27985  -0.38274 v5,v5c,v5x  -2.51048  -1.62698  -0.88351
:LMAX-WF:   10   Non-Spherical LMAX:   4

          ATOMIC SPHERE DEPENDENT PARAMETERS FOR ATOM  Si        
:e__0001: OVERALL ENERGY PARAMETER IS   -0.1000
          OVERALL BASIS SET ON ATOM IS LAPW
:E0_0001: E( 0)=   -0.1000
             APW+lo
:E1_0001: E( 1)=   -0.1000
             APW+lo

          ATOMIC SPHERE DEPENDENT PARAMETERS FOR ATOM  O         
:e__0002: OVERALL ENERGY PARAMETER IS   -0.1000
          OVERALL BASIS SET ON ATOM IS LAPW
:E0_0002: E( 0)=   -0.1000
             APW+lo
:E0_0002: E( 0)=   -1.2772   E(BOTTOM)=   -2.566   E(TOP)=    0.012  1  2   231
             LOCAL ORBITAL
:E1_0002: E( 1)=   -0.1000
             APW+lo

       K=   0.00000   0.00000   0.00000            1
:RKM  : MATRIX SIZE  1625LOs:  42  RKM= 6.97  WEIGHT= 1.00  PGR:    
       EIGENVALUES ARE:
:EIG00001:      -1.5058152   -1.4110854   -1.4110853   -1.3721014   -1.3707935
:EIG00006:      -1.3707935   -0.6498244   -0.6498244   -0.4687259   -0.4646562
:EIG00011:      -0.4524302   -0.4524302   -0.2793400   -0.2793400   -0.2671513
:EIG00016:      -0.2502753   -0.2009261   -0.2009261   -0.1985727   -0.1658446
:EIG00021:      -0.1658446   -0.1475582   -0.1232402   -0.1232402    0.4633426
:EIG00026:       0.7342646    0.7342646    0.7512596    0.7512596    0.8601267
:EIG00031:       0.8631580    0.9314179    0.9465759    0.9465759    0.9694187
:EIG00036:       0.9694187    1.0461941    1.1362478    1.1464060    1.1464060
:EIG00041:       1.1604889    1.1604889    1.2759621    1.2759621    1.3687258
:EIG00046:       1.4162900    1.4162900    1.5304524    1.5304524
 
       ********************************************************

:KPT   :      NUMBER OF K-POINTS:    94
:LMAX-WF:   10   Non-Spherical LMAX:   4

          ATOMIC SPHERE DEPENDENT PARAMETERS FOR ATOM  Si        
:e__0001: OVERALL ENERGY PARAMETER IS   -0.1000
          OVERALL BASIS SET ON ATOM IS LAPW
:E0_0001: E( 0)=   -0.1000
             APW+lo
:E1_0001: E( 1)=   -0.1000
             APW+lo

          ATOMIC SPHERE DEPENDENT PARAMETERS FOR ATOM  O         
:e__0002: OVERALL ENERGY PARAMETER IS   -0.1000
          OVERALL BASIS SET ON ATOM IS LAPW
:E0_0002: E( 0)=   -0.1000
             APW+lo
:E0_0002: E( 0)=   -1.2772   E(BOTTOM)=   -2.566   E(TOP)=    0.012  1  2   231
             LOCAL ORBITAL
:E1_0002: E( 1)=   -0.1000
             APW+lo

       K=   0.00000   0.00000   0.00000            1
:RKM  : MATRIX SIZE  1625LOs:  42  RKM= 6.97  WEIGHT= 1.00  PGR:    
       EIGENVALUES ARE:
:EIG00001:      -1.5058152   -1.4110854   -1.4110853   -1.3721014   -1.3707935
:EIG00006:      -1.3707935   -0.6498244   -0.6498244   -0.4687259   -0.4646562
:EIG00011:      -0.4524302   -0.4524302   -0.2793400   -0.2793400   -0.2671513
:EIG00016:      -0.2502753   -0.2009261   -0.2009261   -0.1985727   -0.1658446
:EIG00021:      -0.1658446   -0.1475582   -0.1232402   -0.1232402    0.4633426
:EIG00026:       0.7342646    0.7342646    0.7512596    0.7512596    0.8601267
:EIG00031:       0.8631580    0.9314179    0.9465759    0.9465759    0.9694187
:EIG00036:       0.9694187    1.0461941    1.1362478    1.1464060    1.1464060
:EIG00041:       1.1604889    1.1604889    1.2759621    1.2759621    1.3687258
:EIG00046:       1.4162900    1.4162900    1.5304524    1.5304524
 
       ********************************************************

:KPT   :      NUMBER OF K-POINTS:    94
       Insulator, EF-inconsistency corrected
:GAP (global)   :  0.571446 Ry =     7.775 eV (accurate value if proper k-mesh)
:GAP (this spin):  0.571446 Ry =     7.775 eV (accurate value if proper k-mesh)
         Bandranges (emin - emax) and occupancy:
:BAN00014:  14   -0.293020   -0.263310  1.00000000
:BAN00015:  15   -0.271154   -0.251712  1.00000000
:BAN00016:  16   -0.252938   -0.225890  1.00000000
:BAN00017:  17   -0.236038   -0.200926  1.00000000
:BAN00018:  18   -0.219742   -0.196553  1.00000000
:BAN00019:  19   -0.217055   -0.167330  1.00000000
:BAN00020:  20   -0.197349   -0.165205  1.00000000
:BAN00021:  21   -0.178427   -0.157664  1.00000000
:BAN00022:  22   -0.158015   -0.120396  1.00000000
:BAN00023:  23   -0.144667   -0.114173  1.00000000
:BAN00024:  24   -0.135773   -0.108104  1.00000000
:BAN00025:  25    0.463343    0.668603  0.00000000
:BAN00026:  26    0.589348    0.734265  0.00000000
:BAN00027:  27    0.706731    0.757547  0.00000000
:BAN00028:  28    0.742679    0.798078  0.00000000
:BAN00029:  29    0.751260    0.813121  0.00000000
        Energy to separate low and high energystates:   -0.76771


:NOE  : NUMBER OF ELECTRONS          =   48.000

:FER  : F E R M I - ENERGY(TETRAH.M.)=  -0.1081035169
:GMA  : POTENTIAL AND CHARGE CUT-OFF  12.00 Ry**.5

:POS001: ATOM   -1 X,Y,Z = 0.46913 0.46913 0.50000  MULT= 3  ZZ= 14.000  Si        

       LMMAX 25
       LM=   0 0  1 0  2 0  2 2 -2 2  3 0  3 2 -3 2  4 0  4 2 -4 2  4 4 -4 4  5 0  5 2 -5 2  5 4
        -5 4  6 0  6 2 -6 2  6 4 -6 4  6 6 -6 6

:CHA001: TOTAL VALENCE CHARGE INSIDE SPHERE   1 =   0.2404    (RMT=  1.4000 )
:PCS001: PARTIAL CHARGES SPHERE =  1 S,P,D,F,PX,PY,PZ,D-Z2,D-X2Y2,D-XY,D-XZ,D-YZ 
:QTL001: 0.0837 0.1075 0.0443 0.0041 0.0362 0.0364 0.0349 0.0049 0.0069 0.0099 0.0115 0.0111
        Q-s-low E-s-low   Q-p-low E-p-low   Q-d-low E-d-low   Q-f-low E-f-low
:EPL001:  0.0220 -1.4551    0.0205 -1.3882    0.0066 -1.3882    0.0008 -1.4271
        Q-s-hi  E-s-hi    Q-p-hi  E-p-hi    Q-d-hi  E-d-hi    Q-f-hi  E-f-hi 
:EPH001:  0.0617 -0.5892    0.0870 -0.4410    0.0376 -0.3115    0.0032 -0.2954

                      QXX         QXY         QYY         QZZ       UP TO R
:VZZ001:            -0.11157     0.09744    -0.18604     0.29760       1.400

:POS002: ATOM   -2 X,Y,Z = 0.14451 0.41337 0.61807  MULT= 6  ZZ=  8.000  O         

       LMMAX 49

:CHA002: TOTAL VALENCE CHARGE INSIDE SPHERE   2 =   2.9252    (RMT=  1.6200 )
:PCS002: PARTIAL CHARGES SPHERE =  2 S,P,D,F,PX,PY,PZ,D-Z2,D-X2Y2,D-XY,D-XZ,D-YZ 
:QTL002: 0.8139 2.1033 0.0060 0.0019 0.6966 0.7061 0.7005 0.0010 0.0014 0.0011 0.0013 0.0013
        Q-s-low E-s-low   Q-p-low E-p-low   Q-d-low E-d-low   Q-f-low E-f-low
:EPL002:  0.7855 -1.4063    0.0091 -1.4157    0.0018 -1.4153    0.0002 -1.4091
        Q-s-hi  E-s-hi    Q-p-hi  E-p-hi    Q-d-hi  E-d-hi    Q-f-hi  E-f-hi 
:EPH002:  0.0283 -0.3664    2.0941 -0.2954    0.0042 -0.3803    0.0017 -0.3607

                      QXX         QXY         QYY         QZZ       UP TO R
:VZZ002:             0.59045    -1.30469    -0.65117     0.06073       1.620

:CHA  : TOTAL VALENCE CHARGE INSIDE UNIT CELL =      24.000000

:SUM  : SUM OF EIGENVALUES =         -13.997459474

       Insulator, EF-inconsistency corrected
:GAP (global)   :  0.571446 Ry =     7.775 eV (accurate value if proper k-mesh)
:GAP (this spin):  0.571446 Ry =     7.775 eV (accurate value if proper k-mesh)
         Bandranges (emin - emax) and occupancy:
:BAN00014:  14   -0.293020   -0.263310  1.00000000
:BAN00015:  15   -0.271154   -0.251712  1.00000000
:BAN00016:  16   -0.252938   -0.225890  1.00000000
:BAN00017:  17   -0.236038   -0.200926  1.00000000
:BAN00018:  18   -0.219742   -0.196553  1.00000000
:BAN00019:  19   -0.217055   -0.167330  1.00000000
:BAN00020:  20   -0.197349   -0.165205  1.00000000
:BAN00021:  21   -0.178427   -0.157664  1.00000000
:BAN00022:  22   -0.158015   -0.120396  1.00000000
:BAN00023:  23   -0.144667   -0.114173  1.00000000
:BAN00024:  24   -0.135773   -0.108104  1.00000000
:BAN00025:  25    0.463343    0.668603  0.00000000
:BAN00026:  26    0.589348    0.734265  0.00000000
:BAN00027:  27    0.706731    0.757547  0.00000000
:BAN00028:  28    0.742679    0.798078  0.00000000
:BAN00029:  29    0.751260    0.813121  0.00000000
        Energy to separate low and high energystates:   -0.76771


:NOE  : NUMBER OF ELECTRONS          =   48.000

:FER  : F E R M I - ENERGY(TETRAH.M.)=  -0.1081035169
:GMA  : POTENTIAL AND CHARGE CUT-OFF  12.00 Ry**.5

:POS001: ATOM   -1 X,Y,Z = 0.46913 0.46913 0.50000  MULT= 3  ZZ= 14.000  Si        

       LMMAX 25
       LM=   0 0  1 0  2 0  2 2 -2 2  3 0  3 2 -3 2  4 0  4 2 -4 2  4 4 -4 4  5 0  5 2 -5 2  5 4
        -5 4  6 0  6 2 -6 2  6 4 -6 4  6 6 -6 6

:CHA001: TOTAL VALENCE CHARGE INSIDE SPHERE   1 =   0.2404    (RMT=  1.4000 )
:PCS001: PARTIAL CHARGES SPHERE =  1 S,P,D,F,PX,PY,PZ,D-Z2,D-X2Y2,D-XY,D-XZ,D-YZ 
:QTL001: 0.0837 0.1075 0.0443 0.0041 0.0362 0.0364 0.0349 0.0049 0.0069 0.0099 0.0115 0.0111
        Q-s-low E-s-low   Q-p-low E-p-low   Q-d-low E-d-low   Q-f-low E-f-low
:EPL001:  0.0220 -1.4551    0.0205 -1.3882    0.0066 -1.3882    0.0008 -1.4271
        Q-s-hi  E-s-hi    Q-p-hi  E-p-hi    Q-d-hi  E-d-hi    Q-f-hi  E-f-hi 
:EPH001:  0.0617 -0.5892    0.0870 -0.4410    0.0376 -0.3115    0.0032 -0.2954

                      QXX         QXY         QYY         QZZ       UP TO R
:VZZ001:            -0.11157     0.09744    -0.18604     0.29760       1.400

:POS002: ATOM   -2 X,Y,Z = 0.14451 0.41337 0.61807  MULT= 6  ZZ=  8.000  O         

       LMMAX 49

:CHA002: TOTAL VALENCE CHARGE INSIDE SPHERE   2 =   2.9252    (RMT=  1.6200 )
:PCS002: PARTIAL CHARGES SPHERE =  2 S,P,D,F,PX,PY,PZ,D-Z2,D-X2Y2,D-XY,D-XZ,D-YZ 
:QTL002: 0.8139 2.1033 0.0060 0.0019 0.6966 0.7061 0.7005 0.0010 0.0014 0.0011 0.0013 0.0013
        Q-s-low E-s-low   Q-p-low E-p-low   Q-d-low E-d-low   Q-f-low E-f-low
:EPL002:  0.7855 -1.4063    0.0091 -1.4157    0.0018 -1.4153    0.0002 -1.4091
        Q-s-hi  E-s-hi    Q-p-hi  E-p-hi    Q-d-hi  E-d-hi    Q-f-hi  E-f-hi 
:EPH002:  0.0283 -0.3664    2.0941 -0.2954    0.0042 -0.3803    0.0017 -0.3607

                      QXX         QXY         QYY         QZZ       UP TO R
:VZZ002:             0.59045    -1.30469    -0.65117     0.06073       1.620

:CHA  : TOTAL VALENCE CHARGE INSIDE UNIT CELL =      24.000000

:SUM  : SUM OF EIGENVALUES =         -13.997459474


        1.ATOM      Si                    4 CORE STATES
       CORE-FORCE in mRy/a.u. = |F|      Fx             Fy             Fz
:FCO001:   1.ATOM      0.169626396371      0.000000000000      0.000000000000     -0.169626396371

:1S 001: 1S                -130.532276832 Ry
:2S 001: 2S                  -9.544708428 Ry
:2PP001: 2P*                 -6.346825173 Ry
:2P 001: 2P                  -6.299437489 Ry

        2.ATOM      O                     1 CORE STATES
       CORE-FORCE in mRy/a.u. = |F|      Fx             Fy             Fz
:FCO002:   2.ATOM    281.740679281930    217.319996011850    112.215839291522    139.847899904689

:1S 002: 1S                 -37.261973617 Ry

        1.ATOM      Si                    4 CORE STATES
       CORE-FORCE in mRy/a.u. = |F|      Fx             Fy             Fz
:FCO001:   1.ATOM      0.169626397585      0.000000000000      0.000000000000     -0.169626397585

:1S 001: 1S                -130.532276832 Ry
:2S 001: 2S                  -9.544708428 Ry
:2PP001: 2P*                 -6.346825172 Ry
:2P 001: 2P                  -6.299437489 Ry

        2.ATOM      O                     1 CORE STATES
       CORE-FORCE in mRy/a.u. = |F|      Fx             Fy             Fz
:FCO002:   2.ATOM    281.740679281995    217.319996011830    112.215839291650    139.847899904750

:1S 002: 1S                 -37.261973617 Ry
:CINT001 Core Integral Atom   1 Up    4.960758 Dn   4.960758 Total   9.921516
:CINT002 Core Integral Atom   2 Up    1.001937 Dn   1.001937 Total   2.003874

       DENSITY AT NUCLEUS
        JATOM        VALENCE       SEMI-CORE          CORE           TOTAL
:RTO001:   1        5.002365     1886.041939        0.000000     1891.044304
:RTO002:   2       15.551278      303.949943        0.000000      319.501220

       HYPERFINE FIELDS FOR THOMSON RADIUS
:HFF001:            0.000          -0.000           0.000          -0.000 (KGAUSS)
:HFF002:            0.000          -0.000           0.000          -0.000 (KGAUSS)
     
       CHARGES OF NEW CHARGE DENSITY
:NTO   : INTERSTITIAL     UP =     5.833852 DN =     5.833852 TOT =    11.667704
:NPC   : PW Pseudocharge  UP =    13.523461 DN =    13.523461 TOT =    27.046923
:NTO001: CHARGE SPHERE  1 UP =     5.201129 DN =     5.201129 TOT =    10.402257
:NTO002: CHARGE SPHERE  2 UP =     3.927176 DN =     3.927176 TOT =     7.854352

:NEC01: NUCLEAR AND ELECTRONIC CHARGE     90.00000    90.00059
     
       CHARGES OF OLD CHARGE DENSITY
:OTO   : INTERSTITIAL     UP =     7.754350 DN =     7.754350 TOT =    15.508700
:OPC   : PW Pseudocharge  UP =    13.367749 DN =    13.367749 TOT =    26.735498
:OTO001: CHARGE SPHERE  1 UP =     5.300477 DN =     5.300477 TOT =    10.600954
:OTO002: CHARGE SPHERE  2 UP =     3.557370 DN =     3.557370 TOT =     7.114740

:NEC02: NUCLEAR AND ELECTRONIC CHARGE     90.00000    90.00000
     
       CONVERGENCE TEST
:DTO001: DIFFERENCE SPHERE  1 UP =  0.1413065 DN =  0.1413065 TOT =  0.2826130
:DTO002: DIFFERENCE SPHERE  2 UP =  0.4369908 DN =  0.4369908 TOT =  0.8739816

:DIS  :  CHARGE DISTANCE       ( 0.4369908 for atom    2 spin 1)      1.3537175
 PW Mixed is         2149
 
******************************************************
* MULTISECANT MIXING VER9 RELEASE 10.4.0              *
* Standard Mode with controls                        *
* Fixed density scale                                *
* Regularization       1.000E-04                     *
* Trust Upper Limit    5.000E+00                     *
* Max Number of Memory Steps    8                    *
******************************************************
 
:PWTMP   6.1772E+02  5.7600E+02  7.5905E+02
:PLANE:  PW TOTAL     12.1882 DISTAN   1.29E+00  1.06E+01 %
:CHARG:  CLM/ATOM     57.2034 DISTAN   7.91E-01  1.38E+00 %
INFO: Reducing dbase  2.50000E-02 1.35372E+00 2.14870E-02
 
Step History
        DMIX         DMIXT        Red     Pred      Trust     Lambda    MagRel    MagAbs     Beta
  1   3.5000E-02   3.5000E-02 -1.00E+00  1.00E+00 -1.00E+01  1.00E+00  3.50E-02  3.50E-02  1.00E+00
  2   3.0202E-02   3.0202E-02  7.36E-01  1.00E+00 -1.00E+01  1.00E+00  3.02E-02  7.27E-02  1.00E+00
  3   4.4665E-02   4.4665E-02 -1.00E+00  1.00E+00 -1.00E+01  1.00E+00  4.47E-02  7.92E-02  1.00E+00
:JACOBIANS    7.372E-01   1.530E-03
  
:NORMS:  1/Froebius, Min, Max, Used   0.9880E+00  0.4934E+00  0.9880E+00  0.9880E+00
:INFO :  Number of Memory Steps    2 Skipping    0
:INFO :  SLambda=    0.1221989954  Max    0.1221989954
:PREDicted Charge, CTotal, PW Trust    1.011E-02   5.249E-02   3.249E-01
:PREDicted DMix, Beta, BLim   5.8486E-02  9.7841E-01  1.4074E+00

Eigenvalues, unscaled except for SY+YY
   #     SY Real        SY Imag          SS             YY         SY+YY Real      SY+YY Imag
   1   1.972632E+00   0.000000E+00   1.952247E+00   1.999918E+00   2.240972E+00   0.000000E+00
   2  -1.625508E-15   0.000000E+00  -1.059115E-16   8.184555E-05   8.185008E-05   0.000000E+00
 
:INFO :  Singular value  2.241E+00 Weight  1.000E+00 Projection  1.174E-02
:INFO :  Singular value  8.185E-05 Weight  1.435E-01 Projection  1.058E+01
:RANK :  ACTIVE   1.14/2  =  57.17 % ; YY RANK   1.14/2  =  57.17 %
 
:DLIM :  Beta Active  9.838E-01
:BLIM :  VZERO Control Off
:TRUST:  Step 2.71E-01  Charge 7.50E-02 (e) CTO  2.69E-01 (e) PW  3.77E-01 (e)
:DIRM :  MEMORY  2/8  SCALE   1.000 RED  0.96 PRED  1.00 NEXT  0.98 BETA  0.98
:TRAVE:  Charge 3.60E-02 (e) CTO  1.87E-01 (e) PW  6.56E-02 (e)
:DIRP :  |MSR1|= 3.194E-02 |PRATT|= 6.472E-01 ANGLE=   2.8 DEGREES
:DIRQ :  |MSR1|= 7.495E-02 |PRATT|= 1.583E+00 ANGLE=   3.2 DEGREES
:DIRT :  |MSR1|= 8.147E-02 |PRATT|= 1.710E+00 ANGLE=   3.2 DEGREES
:MIX  :   MSD1   REGULARIZATION:  2.00E-04 GREED: 0.04856  Newton 1.00  0.0476                
     
       CHARGES OF MIXED CHARGE DENSITY
:CTO   : INTERSTITIAL     UP =     7.660945 DN =     7.660945 TOT =    15.321890
:CPC   : PW Pseudocharge  UP =    13.374748 DN =    13.374748 TOT =    26.749497
:CTO001: CHARGE SPHERE  1 UP =     5.295587 DN =     5.295587 TOT =    10.591174
:CTO002: CHARGE SPHERE  2 UP =     3.575382 DN =     3.575382 TOT =     7.150765

       SPIN MAGNETIC MOMENTS OF MIXED CHARGE DENSITY
:MMINT:  MAGNETIC MOMENT IN INTERSTITIAL  =   -0.00000
:MMI001: MAGNETIC MOMENT IN SPHERE   1    =    0.00000
:MMI002: MAGNETIC MOMENT IN SPHERE   2    =   -0.00000
:MMTOT:  SPIN MAGNETIC MOMENT IN CELL     =    0.00000

:NEC03: NUCLEAR AND ELECTRONIC CHARGE     90.00000    90.00000

PW CHANGE     H    K    L             Current                    Change               Residue
:PUP001:      0    0    0  2.77130565E-02 0.00000000E+00 -1.138E-04  0.000E+00 -2.326E-03  0.000E+00
:PUP002:      0    0   -1 -3.74585357E-10 0.00000000E+00  1.780E-11  0.000E+00  3.670E-10  0.000E+00
:PUP003:     -1    0    0 -1.96440154E-02 0.00000000E+00  5.470E-05  0.000E+00  1.128E-03  0.000E+00
:PUP004:     -1    0   -1  2.23094310E-02-3.86410671E-02 -1.029E-05  1.782E-05 -2.172E-04  3.762E-04
:PUP005:     -1    0    1  1.33523976E-02 2.31270304E-02 -8.728E-06 -1.512E-05 -1.864E-04 -3.229E-04
:PUP006:      0    0   -2 -1.81847489E-10 0.00000000E+00  7.238E-12  0.000E+00  1.484E-10  0.000E+00
:PUP007:     -2    1    0 -7.99331594E-03-1.18757340E-02 -7.563E-06 -3.121E-05 -1.519E-04 -6.899E-04
:PUP008:     -1   -1    0 -7.99331594E-03 1.18757340E-02 -7.563E-06  3.121E-05 -1.519E-04  6.899E-04
:PUP009:     -1    0   -2  1.91305311E-02 3.31350534E-02  4.844E-05  8.390E-05  1.087E-03  1.882E-03
:PUP010:     -1    0    2  5.03339024E-04-8.71808806E-04  3.790E-06 -6.564E-06  1.305E-04 -2.260E-04
:PUP011:     -2    1   -1 -2.34338759E-02-1.28889091E-02 -7.180E-05 -2.411E-05 -1.584E-03 -6.057E-04
:PUP012:     -1   -1   -1  2.28790604E-02 1.38498778E-02  5.678E-05  5.012E-05  1.317E-03  1.069E-03
  
:PDN001:      0    0    0  2.77130565E-02 0.00000000E+00 -1.138E-04  0.000E+00 -2.326E-03  0.000E+00
:PDN002:      0    0   -1 -3.74585357E-10 0.00000000E+00  1.780E-11  0.000E+00  3.670E-10  0.000E+00
:PDN003:     -1    0    0 -1.96440154E-02 0.00000000E+00  5.470E-05  0.000E+00  1.128E-03  0.000E+00
:PDN004:     -1    0   -1  2.23094310E-02-3.86410671E-02 -1.029E-05  1.782E-05 -2.172E-04  3.762E-04
:PDN005:     -1    0    1  1.33523976E-02 2.31270304E-02 -8.728E-06 -1.512E-05 -1.864E-04 -3.229E-04
:PDN006:      0    0   -2 -1.81847489E-10 0.00000000E+00  7.238E-12  0.000E+00  1.484E-10  0.000E+00
:PDN007:     -2    1    0 -7.99331594E-03-1.18757340E-02 -7.563E-06 -3.121E-05 -1.519E-04 -6.899E-04
:PDN008:     -1   -1    0 -7.99331594E-03 1.18757340E-02 -7.563E-06  3.121E-05 -1.519E-04  6.899E-04
:PDN009:     -1    0   -2  1.91305311E-02 3.31350534E-02  4.844E-05  8.390E-05  1.087E-03  1.882E-03
:PDN010:     -1    0    2  5.03339024E-04-8.71808806E-04  3.790E-06 -6.564E-06  1.305E-04 -2.260E-04
:PDN011:     -2    1   -1 -2.34338759E-02-1.28889091E-02 -7.180E-05 -2.411E-05 -1.584E-03 -6.057E-04
:PDN012:     -1   -1   -1  2.28790604E-02 1.38498778E-02  5.678E-05  5.012E-05  1.317E-03  1.069E-03

:ENE  : ********** TOTAL ENERGY IN Ry =        -2644.81049321

       TOTAL FORCE IN mRy/a.u. = |F|     Fx             Fy             Fz     with/without FOR in case.in2
:FOR001:   1.ATOM          3.038          0.000          0.000         -3.038 partial forces
:FOR002:   2.ATOM        781.482       -603.127       -311.149       -387.476 partial forces
       TOTAL FORCE WITH RESPECT TO GLOBAL CARTESIAN COORDINATES:
:FCA001:   1.ATOM                        -2.631         -1.519          0.000 partial forces
:FCA002:   2.ATOM                      -603.127       -311.149       -387.476 partial forces
       TOTAL FORCE WITH RESPECT TO THE GLOBAL COORDINATE SYSTEM:
:FGL001:   1.ATOM                -3.038326106    -3.038326106     0.000000000 partial forces
:FGL002:   2.ATOM              -696.431162954  -659.364859142  -387.476425946 partial forces
 Flat Integration
 New Mode for Coulomb Integral
 Consistent 3/8+Simpson combinations
 Extension of core to zero
 LDM version in phi
 Fifth-order quadrature in outwin


            ---------
:ITE004:  4. ITERATION
            ---------

:NATO :    2 INDEPENDENT AND    9 TOTAL ATOMS IN UNITCELL
       SUBSTANCE: SiO2 for tests                                              

       LATTICE                      = H   
:POT  : POTENTIAL OPTION EX_PBE EC_PBE VX_PBE VC_PBE
:LAT  : LATTICE CONSTANTS=  9.26193  9.26193 10.21737
:VOL  : UNIT CELL VOLUME =     759.05354
       MODE OF CALCULATION IS       = RELA
       SPINPOLARIZED CALCULATION
:IFFT  : FFT-parameters:   72   72   80 Factor: 2.00


   CONVERGENCE PARAMETER FOR PSEUDOCHARGE: NCON=  9
   MAXIMAL VALUE OF RMT(JATOM)*ABSK(NKK) : RK  =19.43469


:VKCOUL :  VK-COUL convergence: 0.341E-05
       ATOMNUMBER=  1 Si         VCOUL-ZERO = -0.14376E+01
:EFG001:                        EFG         =     0.03558   *10**21  V / m**2
                               V20  TOT/SRF=     0.03081    -0.01496
                               V22  TOT/SRF=     0.00526     0.00159
                               V22M TOT/SRF=     0.00476    -0.01834
                               V21  TOT/SRF=     0.00000     0.00000
                               V21M TOT/SRF=     0.00000     0.00000

             -0.01253    0.00476    0.00000       -0.01070    0.00000    0.00000
              0.00476   -0.02304    0.00000        0.00000   -0.02488    0.00000
              0.00000    0.00000    0.03558        0.00000    0.00000    0.03558

         MAIN DIRECTIONS OF THE EFG   1.0000 -0.3855  0.0000
                                      0.3855  1.0000  0.0000
                                      0.0000  0.0000  1.0000
:ANG001:  ANGLE WITH OLD X-AXIS =        21.1

:ETA001:                         ASYMM. ETA =     0.39855


       ATOMNUMBER=  2 O          VCOUL-ZERO = -0.55183E-01
:EFG002:                        EFG         =     3.04119   *10**21  V / m**2
                               V20  TOT/SRF=     0.02901     0.02317
                               V22  TOT/SRF=     0.60802     0.58454
                               V22M TOT/SRF=    -1.33110    -1.29150
                               V21  TOT/SRF=    -1.64967    -1.59064
                               V21M TOT/SRF=     1.46632     1.40154

              0.59127   -1.33110   -1.64967        3.04119    0.00000    0.00000
             -1.33110   -0.62477    1.46632        0.00000   -1.24267    0.00000
             -1.64967    1.46632    0.03350        0.00000    0.00000   -1.79852

         MAIN DIRECTIONS OF THE EFG   1.0000  1.0000  0.0119
                                     -0.7236  0.5290  1.0000
                                     -0.9012  0.6849 -0.7897
:ANG002:  ANGLE WITH OLD X-AXIS =        45.0

:ETA002:                         ASYMM. ETA =     0.18277


     HELLMANN-FEYNMAN-FORCE IN mRy/a.u. = |F|  Fx       Fy             Fz
:FHF001:   1.ATOM      4.837743402413      0.000000000000      0.000000000000     -4.837743402413

     HELLMANN-FEYNMAN-FORCE IN mRy/a.u. = |F|  Fx       Fy             Fz
:FHF002:   2.ATOM   1038.106403340243   -800.375926632537   -415.712768668119   -514.048805746507

:FIT001: LUSE= 13 SIGMA OF V-XC FIT FOR ATOM  1  0.8165048E-02
:FIT001: LUSE= 13 SIGMA OF V-XC FIT FOR ATOM  1  0.8165048E-02
:FIT002: LUSE= 13 SIGMA OF V-XC FIT FOR ATOM  2  0.1242212E-02
:FIT002: LUSE= 13 SIGMA OF V-XC FIT FOR ATOM  2  0.1242212E-02
:DEN  : DENSITY INTEGRAL  =         -1216.68344664   (Ry)
       ELS_POTENTIAL_AT Z=0 and Z=0.5:   0.04437  -0.08637
       ELS_POTENTIAL_AT Y=0 and Y=0.5:   0.00000   0.00000
:VZERO:v0,v0c,v0x  -0.69398   0.04437  -0.73835 v5,v5c,v5x  -0.75090  -0.08637  -0.66453
:VZERY:v0,v0c,v0x  -0.70278   0.00000  -0.70278 v5,v5c,v5x  -0.70278   0.00000  -0.70278
:VZERX:v0,v0c,v0x  -0.10706   0.27365  -0.38072 v5,v5c,v5x  -2.51170  -1.63031  -0.88139
:LMAX-WF:   10   Non-Spherical LMAX:   4

          ATOMIC SPHERE DEPENDENT PARAMETERS FOR ATOM  Si        
:e__0001: OVERALL ENERGY PARAMETER IS   -0.3000
          OVERALL BASIS SET ON ATOM IS LAPW
:E0_0001: E( 0)=   -0.3000
             APW+lo
:E1_0001: E( 1)=   -0.3000
             APW+lo

          ATOMIC SPHERE DEPENDENT PARAMETERS FOR ATOM  O         
:e__0002: OVERALL ENERGY PARAMETER IS   -0.3000
          OVERALL BASIS SET ON ATOM IS LAPW
:E0_0002: E( 0)=    0.1000
             APW+lo
:E0_0002: E( 0)=   -1.2493   E(BOTTOM)=   -2.543   E(TOP)=    0.045  1  2   230
             LOCAL ORBITAL
:E1_0002: E( 1)=   -0.3000
             APW+lo

       K=   0.00000   0.00000   0.00000            1
:RKM  : MATRIX SIZE  1625LOs:  42  RKM= 6.97  WEIGHT= 1.00  PGR:    
       EIGENVALUES ARE:
:EIG00001:      -1.4862284   -1.3893175   -1.3893175   -1.3492707   -1.3478358
:EIG00006:      -1.3478358   -0.6341851   -0.6341851   -0.4493320   -0.4459617
:EIG00011:      -0.4333736   -0.4333736   -0.2603180   -0.2603180   -0.2473243
:EIG00016:      -0.2303192   -0.1787110   -0.1787110   -0.1764791   -0.1432082
:EIG00021:      -0.1432082   -0.1244279   -0.0995884   -0.0995884    0.4699604
:EIG00026:       0.7374551    0.7374552    0.7565002    0.7565002    0.8658978
:EIG00031:       0.8695060    0.9375351    0.9554156    0.9554156    0.9807118
:EIG00036:       0.9807118    1.0550166    1.1423965    1.1508022    1.1508022
:EIG00041:       1.1636520    1.1636520    1.2800389    1.2800390    1.3727183
       ********************************************************

:KPT   :      NUMBER OF K-POINTS:    94
:LMAX-WF:   10   Non-Spherical LMAX:   4

          ATOMIC SPHERE DEPENDENT PARAMETERS FOR ATOM  Si        
:e__0001: OVERALL ENERGY PARAMETER IS   -0.3000
          OVERALL BASIS SET ON ATOM IS LAPW
:E0_0001: E( 0)=   -0.3000
             APW+lo
:E1_0001: E( 1)=   -0.3000
             APW+lo

          ATOMIC SPHERE DEPENDENT PARAMETERS FOR ATOM  O         
:e__0002: OVERALL ENERGY PARAMETER IS   -0.3000
          OVERALL BASIS SET ON ATOM IS LAPW
:E0_0002: E( 0)=    0.1000
             APW+lo
:E0_0002: E( 0)=   -1.2493   E(BOTTOM)=   -2.543   E(TOP)=    0.045  1  2   230
             LOCAL ORBITAL
:E1_0002: E( 1)=   -0.3000
             APW+lo

       K=   0.00000   0.00000   0.00000            1
:RKM  : MATRIX SIZE  1625LOs:  42  RKM= 6.97  WEIGHT= 1.00  PGR:    
       EIGENVALUES ARE:
:EIG00001:      -1.4862284   -1.3893175   -1.3893175   -1.3492707   -1.3478358
:EIG00006:      -1.3478358   -0.6341851   -0.6341851   -0.4493320   -0.4459617
:EIG00011:      -0.4333736   -0.4333736   -0.2603180   -0.2603180   -0.2473243
:EIG00016:      -0.2303192   -0.1787110   -0.1787110   -0.1764791   -0.1432082
:EIG00021:      -0.1432082   -0.1244279   -0.0995884   -0.0995884    0.4699604
:EIG00026:       0.7374551    0.7374552    0.7565002    0.7565002    0.8658978
:EIG00031:       0.8695060    0.9375351    0.9554156    0.9554156    0.9807118
:EIG00036:       0.9807118    1.0550166    1.1423965    1.1508022    1.1508022
:EIG00041:       1.1636520    1.1636520    1.2800389    1.2800390    1.3727183
       ********************************************************

:KPT   :      NUMBER OF K-POINTS:    94
       Insulator, EF-inconsistency corrected
:GAP (global)   :  0.553600 Ry =     7.532 eV (accurate value if proper k-mesh)
:GAP (this spin):  0.553600 Ry =     7.532 eV (accurate value if proper k-mesh)
         Bandranges (emin - emax) and occupancy:
:BAN00014:  14   -0.274685   -0.243428  1.00000000
:BAN00015:  15   -0.252358   -0.231413  1.00000000
:BAN00016:  16   -0.232730   -0.204786  1.00000000
:BAN00017:  17   -0.215267   -0.178711  1.00000000
:BAN00018:  18   -0.198567   -0.174746  1.00000000
:BAN00019:  19   -0.195912   -0.144622  1.00000000
:BAN00020:  20   -0.175681   -0.142537  1.00000000
:BAN00021:  21   -0.156151   -0.134834  1.00000000
:BAN00022:  22   -0.135074   -0.096348  1.00000000
:BAN00023:  23   -0.121426   -0.090014  1.00000000
:BAN00024:  24   -0.112403   -0.083639  1.00000000
:BAN00025:  25    0.469960    0.676911  0.00000000
:BAN00026:  26    0.598221    0.737455  0.00000000
:BAN00027:  27    0.714814    0.761875  0.00000000
:BAN00028:  28    0.745331    0.803651  0.00000000
:BAN00029:  29    0.756500    0.818609  0.00000000
        Energy to separate low and high energystates:   -0.75360


:NOE  : NUMBER OF ELECTRONS          =   48.000

:FER  : F E R M I - ENERGY(TETRAH.M.)=  -0.0836393278
:GMA  : POTENTIAL AND CHARGE CUT-OFF  12.00 Ry**.5

:POS001: ATOM   -1 X,Y,Z = 0.46913 0.46913 0.50000  MULT= 3  ZZ= 14.000  Si        

       LMMAX 25
       LM=   0 0  1 0  2 0  2 2 -2 2  3 0  3 2 -3 2  4 0  4 2 -4 2  4 4 -4 4  5 0  5 2 -5 2  5 4
        -5 4  6 0  6 2 -6 2  6 4 -6 4  6 6 -6 6

:CHA001: TOTAL VALENCE CHARGE INSIDE SPHERE   1 =   0.2460    (RMT=  1.4000 )
:PCS001: PARTIAL CHARGES SPHERE =  1 S,P,D,F,PX,PY,PZ,D-Z2,D-X2Y2,D-XY,D-XZ,D-YZ 
:QTL001: 0.0856 0.1103 0.0452 0.0041 0.0371 0.0374 0.0358 0.0051 0.0070 0.0101 0.0117 0.0113
        Q-s-low E-s-low   Q-p-low E-p-low   Q-d-low E-d-low   Q-f-low E-f-low
:EPL001:  0.0227 -1.4343    0.0210 -1.3657    0.0067 -1.3657    0.0008 -1.4055
        Q-s-hi  E-s-hi    Q-p-hi  E-p-hi    Q-d-hi  E-d-hi    Q-f-hi  E-f-hi 
:EPH001:  0.0629 -0.5722    0.0893 -0.4215    0.0385 -0.2885    0.0032 -0.2712

                      QXX         QXY         QYY         QZZ       UP TO R
:VZZ001:            -0.11188     0.09750    -0.19643     0.30831       1.400

:POS002: ATOM   -2 X,Y,Z = 0.14451 0.41337 0.61807  MULT= 6  ZZ=  8.000  O         

       LMMAX 49

:CHA002: TOTAL VALENCE CHARGE INSIDE SPHERE   2 =   2.9032    (RMT=  1.6200 )
:PCS002: PARTIAL CHARGES SPHERE =  2 S,P,D,F,PX,PY,PZ,D-Z2,D-X2Y2,D-XY,D-XZ,D-YZ 
:QTL002: 0.8113 2.0836 0.0062 0.0019 0.6902 0.6994 0.6940 0.0010 0.0014 0.0011 0.0013 0.0014
        Q-s-low E-s-low   Q-p-low E-p-low   Q-d-low E-d-low   Q-f-low E-f-low
:EPL002:  0.7818 -1.3843    0.0093 -1.3941    0.0018 -1.3936    0.0002 -1.3871
        Q-s-hi  E-s-hi    Q-p-hi  E-p-hi    Q-d-hi  E-d-hi    Q-f-hi  E-f-hi 
:EPH002:  0.0295 -0.3485    2.0743 -0.2744    0.0044 -0.3589    0.0018 -0.3401

                      QXX         QXY         QYY         QZZ       UP TO R
:VZZ002:             0.55582    -1.22243    -0.61455     0.05872       1.620

:CHA  : TOTAL VALENCE CHARGE INSIDE UNIT CELL =      24.000000

:SUM  : SUM OF EIGENVALUES =         -13.498771362

       Insulator, EF-inconsistency corrected
:GAP (global)   :  0.553600 Ry =     7.532 eV (accurate value if proper k-mesh)
:GAP (this spin):  0.553600 Ry =     7.532 eV (accurate value if proper k-mesh)
         Bandranges (emin - emax) and occupancy:
:BAN00014:  14   -0.274685   -0.243428  1.00000000
:BAN00015:  15   -0.252358   -0.231413  1.00000000
:BAN00016:  16   -0.232730   -0.204786  1.00000000
:BAN00017:  17   -0.215267   -0.178711  1.00000000
:BAN00018:  18   -0.198567   -0.174746  1.00000000
:BAN00019:  19   -0.195912   -0.144622  1.00000000
:BAN00020:  20   -0.175681   -0.142537  1.00000000
:BAN00021:  21   -0.156151   -0.134834  1.00000000
:BAN00022:  22   -0.135074   -0.096348  1.00000000
:BAN00023:  23   -0.121426   -0.090014  1.00000000
:BAN00024:  24   -0.112403   -0.083639  1.00000000
:BAN00025:  25    0.469960    0.676911  0.00000000
[...]
:EIG00026:       0.7849346    0.7849346    0.8209408    0.8209408    0.9112951
:EIG00031:       0.9610736    1.0028645    1.0324190    1.0324191    1.0840960
:EIG00036:       1.0840960    1.1398673    1.1991501    1.2039455    1.2039455
:EIG00041:       1.2086546    1.2086546    1.3281756    1.3281756    1.4187393
:EIG00046:       1.4692723    1.4692723    1.5706936    1.5706936
 
       ********************************************************

:KPT   :      NUMBER OF K-POINTS:    94
:LMAX-WF:   10   Non-Spherical LMAX:   4

          ATOMIC SPHERE DEPENDENT PARAMETERS FOR ATOM  Si        
:e__0001: OVERALL ENERGY PARAMETER IS   -0.1027
          OVERALL BASIS SET ON ATOM IS LAPW
:E0_0001: E( 0)=   -0.1027
             APW+lo
:E1_0001: E( 1)=   -0.1027
             APW+lo

          ATOMIC SPHERE DEPENDENT PARAMETERS FOR ATOM  O         
:e__0002: OVERALL ENERGY PARAMETER IS   -0.1027
          OVERALL BASIS SET ON ATOM IS LAPW
:E0_0002: E( 0)=    0.2973
             APW+lo
:E0_0002: E( 0)=   -1.0306   E(BOTTOM)=   -2.360   E(TOP)=    0.299  1  2   232
             LOCAL ORBITAL
:E1_0002: E( 1)=   -0.1027
             APW+lo
:WARN  : P(J,JATOM) almost zero (     -0.441E-03). Shifted Energy by -0.01 down to     0.2873

       K=   0.00000   0.00000   0.00000            1
:RKM  : MATRIX SIZE  1625LOs:  42  RKM= 6.97  WEIGHT= 1.00  PGR:    
       EIGENVALUES ARE:
:EIG00001:      -1.3309399   -1.2179227   -1.2179227   -1.1696092   -1.1674371
:EIG00006:      -1.1674371   -0.5068268   -0.5068268   -0.2999530   -0.2970708
:EIG00011:      -0.2848428   -0.2848428   -0.1184242   -0.1184242   -0.1000797
:EIG00016:      -0.0818448   -0.0102057   -0.0102057   -0.0082748    0.0243500
:EIG00021:       0.0243500    0.0471229    0.0756995    0.0756995    0.5421062
:EIG00026:       0.7849346    0.7849346    0.8209408    0.8209408    0.9112951
:EIG00031:       0.9610736    1.0028645    1.0324190    1.0324191    1.0840960
:EIG00036:       1.0840960    1.1398673    1.1991501    1.2039455    1.2039455
:EIG00041:       1.2086546    1.2086546    1.3281756    1.3281756    1.4187393
:EIG00046:       1.4692723    1.4692723    1.5706936    1.5706936
 
       ********************************************************

:KPT   :      NUMBER OF K-POINTS:    94
       Insulator, EF-inconsistency corrected
:GAP (global)   :  0.443797 Ry =     6.038 eV (accurate value if proper k-mesh)
:GAP (this spin):  0.443797 Ry =     6.038 eV (accurate value if proper k-mesh)
         Bandranges (emin - emax) and occupancy:
:BAN00014:  14   -0.136299   -0.095848  1.00000000
:BAN00015:  15   -0.112152   -0.078470  1.00000000
:BAN00016:  16   -0.081845   -0.049309  1.00000000
:BAN00017:  17   -0.059653   -0.010206  1.00000000
:BAN00018:  18   -0.040355   -0.010206  1.00000000
:BAN00019:  19   -0.035076    0.024355  1.00000000
:BAN00020:  20   -0.013729    0.026610  1.00000000
:BAN00021:  21    0.009749    0.034184  1.00000000
:BAN00022:  22    0.035004    0.082238  1.00000000
:BAN00023:  23    0.052068    0.089418  1.00000000
:BAN00024:  24    0.061274    0.098309  1.00000000
:BAN00025:  25    0.542106    0.762544  0.00000000
:BAN00026:  26    0.686127    0.812365  0.00000000
:BAN00027:  27    0.766063    0.827918  0.00000000
:BAN00028:  28    0.782056    0.860466  0.00000000
:BAN00029:  29    0.815743    0.878923  0.00000000
        Energy to separate low and high energystates:   -0.63732


:NOE  : NUMBER OF ELECTRONS          =   48.000

:FER  : F E R M I - ENERGY(TETRAH.M.)=   0.0983089702
:GMA  : POTENTIAL AND CHARGE CUT-OFF  12.00 Ry**.5

:POS001: ATOM   -1 X,Y,Z = 0.46913 0.46913 0.50000  MULT= 3  ZZ= 14.000  Si        

       LMMAX 25
       LM=   0 0  1 0  2 0  2 2 -2 2  3 0  3 2 -3 2  4 0  4 2 -4 2  4 4 -4 4  5 0  5 2 -5 2  5 4
        -5 4  6 0  6 2 -6 2  6 4 -6 4  6 6 -6 6

:CHA001: TOTAL VALENCE CHARGE INSIDE SPHERE   1 =   0.2858    (RMT=  1.4000 )
:PCS001: PARTIAL CHARGES SPHERE =  1 S,P,D,F,PX,PY,PZ,D-Z2,D-X2Y2,D-XY,D-XZ,D-YZ 
:QTL001: 0.0990 0.1297 0.0523 0.0041 0.0435 0.0441 0.0421 0.0063 0.0084 0.0116 0.0132 0.0128
        Q-s-low E-s-low   Q-p-low E-p-low   Q-d-low E-d-low   Q-f-low E-f-low
:EPL001:  0.0278 -1.2698    0.0241 -1.1884    0.0071 -1.1884    0.0008 -1.2358
        Q-s-hi  E-s-hi    Q-p-hi  E-p-hi    Q-d-hi  E-d-hi    Q-f-hi  E-f-hi 
:EPH001:  0.0712 -0.4352    0.1056 -0.2695    0.0452 -0.1153    0.0033 -0.0887

                      QXX         QXY         QYY         QZZ       UP TO R
:VZZ001:            -0.09707     0.09659    -0.27984     0.37691       1.400

:POS002: ATOM   -2 X,Y,Z = 0.14451 0.41337 0.61807  MULT= 6  ZZ=  8.000  O         

       LMMAX 49

:CHA002: TOTAL VALENCE CHARGE INSIDE SPHERE   2 =   2.7410    (RMT=  1.6200 )
:PCS002: PARTIAL CHARGES SPHERE =  2 S,P,D,F,PX,PY,PZ,D-Z2,D-X2Y2,D-XY,D-XZ,D-YZ 
:QTL002: 0.7916 1.9395 0.0074 0.0022 0.6433 0.6501 0.6461 0.0012 0.0016 0.0014 0.0016 0.0016
        Q-s-low E-s-low   Q-p-low E-p-low   Q-d-low E-d-low   Q-f-low E-f-low
:EPL002:  0.7540 -1.2108    0.0100 -1.2243    0.0020 -1.2228    0.0002 -1.2144
        Q-s-hi  E-s-hi    Q-p-hi  E-p-hi    Q-d-hi  E-d-hi    Q-f-hi  E-f-hi 
:EPH002:  0.0377 -0.2127    1.9295 -0.1151    0.0054 -0.1944    0.0020 -0.1836

                      QXX         QXY         QYY         QZZ       UP TO R
:VZZ002:             0.43455    -0.92678    -0.48236     0.04781       1.620

:CHA  : TOTAL VALENCE CHARGE INSIDE UNIT CELL =      24.000000

:SUM  : SUM OF EIGENVALUES =          -9.672446369

       Insulator, EF-inconsistency corrected
:GAP (global)   :  0.443797 Ry =     6.038 eV (accurate value if proper k-mesh)
:GAP (this spin):  0.443797 Ry =     6.038 eV (accurate value if proper k-mesh)
         Bandranges (emin - emax) and occupancy:
:BAN00014:  14   -0.136299   -0.095848  1.00000000
:BAN00015:  15   -0.112152   -0.078470  1.00000000
:BAN00016:  16   -0.081845   -0.049309  1.00000000
:BAN00017:  17   -0.059653   -0.010206  1.00000000
:BAN00018:  18   -0.040355   -0.010206  1.00000000
:BAN00019:  19   -0.035076    0.024355  1.00000000
:BAN00020:  20   -0.013729    0.026610  1.00000000
:BAN00021:  21    0.009749    0.034184  1.00000000
:BAN00022:  22    0.035004    0.082238  1.00000000
:BAN00023:  23    0.052068    0.089418  1.00000000
:BAN00024:  24    0.061274    0.098309  1.00000000
:BAN00025:  25    0.542106    0.762544  0.00000000
:BAN00026:  26    0.686127    0.812365  0.00000000
:BAN00027:  27    0.766063    0.827918  0.00000000
:BAN00028:  28    0.782056    0.860466  0.00000000
:BAN00029:  29    0.815743    0.878923  0.00000000
        Energy to separate low and high energystates:   -0.63732


:NOE  : NUMBER OF ELECTRONS          =   48.000

:FER  : F E R M I - ENERGY(TETRAH.M.)=   0.0983089702
:GMA  : POTENTIAL AND CHARGE CUT-OFF  12.00 Ry**.5

:POS001: ATOM   -1 X,Y,Z = 0.46913 0.46913 0.50000  MULT= 3  ZZ= 14.000  Si        

       LMMAX 25
       LM=   0 0  1 0  2 0  2 2 -2 2  3 0  3 2 -3 2  4 0  4 2 -4 2  4 4 -4 4  5 0  5 2 -5 2  5 4
        -5 4  6 0  6 2 -6 2  6 4 -6 4  6 6 -6 6

:CHA001: TOTAL VALENCE CHARGE INSIDE SPHERE   1 =   0.2858    (RMT=  1.4000 )
:PCS001: PARTIAL CHARGES SPHERE =  1 S,P,D,F,PX,PY,PZ,D-Z2,D-X2Y2,D-XY,D-XZ,D-YZ 
:QTL001: 0.0990 0.1297 0.0523 0.0041 0.0435 0.0441 0.0421 0.0063 0.0084 0.0116 0.0132 0.0128
        Q-s-low E-s-low   Q-p-low E-p-low   Q-d-low E-d-low   Q-f-low E-f-low
:EPL001:  0.0278 -1.2698    0.0241 -1.1884    0.0071 -1.1884    0.0008 -1.2358
        Q-s-hi  E-s-hi    Q-p-hi  E-p-hi    Q-d-hi  E-d-hi    Q-f-hi  E-f-hi 
:EPH001:  0.0712 -0.4352    0.1056 -0.2695    0.0452 -0.1153    0.0033 -0.0887

                      QXX         QXY         QYY         QZZ       UP TO R
:VZZ001:            -0.09707     0.09659    -0.27984     0.37691       1.400

:POS002: ATOM   -2 X,Y,Z = 0.14451 0.41337 0.61807  MULT= 6  ZZ=  8.000  O         

       LMMAX 49

:CHA002: TOTAL VALENCE CHARGE INSIDE SPHERE   2 =   2.7410    (RMT=  1.6200 )
:PCS002: PARTIAL CHARGES SPHERE =  2 S,P,D,F,PX,PY,PZ,D-Z2,D-X2Y2,D-XY,D-XZ,D-YZ 
:QTL002: 0.7916 1.9395 0.0074 0.0022 0.6433 0.6501 0.6461 0.0012 0.0016 0.0014 0.0016 0.0016
        Q-s-low E-s-low   Q-p-low E-p-low   Q-d-low E-d-low   Q-f-low E-f-low
:EPL002:  0.7540 -1.2108    0.0100 -1.2243    0.0020 -1.2228    0.0002 -1.2144
        Q-s-hi  E-s-hi    Q-p-hi  E-p-hi    Q-d-hi  E-d-hi    Q-f-hi  E-f-hi 
:EPH002:  0.0377 -0.2127    1.9295 -0.1151    0.0054 -0.1944    0.0020 -0.1836

                      QXX         QXY         QYY         QZZ       UP TO R
:VZZ002:             0.43455    -0.92678    -0.48236     0.04781       1.620

:CHA  : TOTAL VALENCE CHARGE INSIDE UNIT CELL =      24.000000

:SUM  : SUM OF EIGENVALUES =          -9.672446369


        1.ATOM      Si                    4 CORE STATES
       CORE-FORCE in mRy/a.u. = |F|      Fx             Fy             Fz
:FCO001:   1.ATOM     23.007794099461      0.000000000000      0.000000000000    -23.007794099461

:1S 001: 1S                -130.616484139 Ry
:2S 001: 2S                  -9.613105357 Ry
:2PP001: 2P*                 -6.415162711 Ry
:2P 001: 2P                  -6.367655530 Ry

        2.ATOM      O                     1 CORE STATES
       CORE-FORCE in mRy/a.u. = |F|      Fx             Fy             Fz
:FCO002:   2.ATOM    344.615920907193    264.592227587947    137.976428435895    172.376307069258

:1S 002: 1S                 -36.901790664 Ry

        1.ATOM      Si                    4 CORE STATES
       CORE-FORCE in mRy/a.u. = |F|      Fx             Fy             Fz
:FCO001:   1.ATOM     23.007794100302      0.000000000000      0.000000000000    -23.007794100302

:1S 001: 1S                -130.616484139 Ry
:2S 001: 2S                  -9.613105357 Ry
:2PP001: 2P*                 -6.415162711 Ry
:2P 001: 2P                  -6.367655531 Ry

        2.ATOM      O                     1 CORE STATES
       CORE-FORCE in mRy/a.u. = |F|      Fx             Fy             Fz
:FCO002:   2.ATOM    344.615920899677    264.592227582240    137.976428432490    172.376307065717

:1S 002: 1S                 -36.901790664 Ry
:CINT001 Core Integral Atom   1 Up    4.961990 Dn   4.961990 Total   9.923980
:CINT002 Core Integral Atom   2 Up    1.001860 Dn   1.001860 Total   2.003721

       DENSITY AT NUCLEUS
        JATOM        VALENCE       SEMI-CORE          CORE           TOTAL
:RTO001:   1        5.897706     1886.365769        0.000000     1892.263475
:RTO002:   2       14.552134      304.029961        0.000000      318.582096

       HYPERFINE FIELDS FOR THOMSON RADIUS
:HFF001:           -0.000           0.000           0.000           0.000 (KGAUSS)
:HFF002:            0.000           0.000           0.000           0.000 (KGAUSS)
     
       CHARGES OF NEW CHARGE DENSITY
:NTO   : INTERSTITIAL     UP =     6.800169 DN =     6.800169 TOT =    13.600337
:NPC   : PW Pseudocharge  UP =    13.233657 DN =    13.233657 TOT =    26.467314
:NTO001: CHARGE SPHERE  1 UP =     5.247749 DN =     5.247749 TOT =    10.495499
:NTO002: CHARGE SPHERE  2 UP =     3.742816 DN =     3.742816 TOT =     7.485631

:NEC01: NUCLEAR AND ELECTRONIC CHARGE     90.00000    90.00062
     
       CHARGES OF OLD CHARGE DENSITY
:OTO   : INTERSTITIAL     UP =     6.799619 DN =     6.799619 TOT =    13.599237
:OPC   : PW Pseudocharge  UP =    13.234208 DN =    13.234208 TOT =    26.468416
:OTO001: CHARGE SPHERE  1 UP =     5.247725 DN =     5.247725 TOT =    10.495449
:OTO002: CHARGE SPHERE  2 UP =     3.742868 DN =     3.742868 TOT =     7.485736

:NEC02: NUCLEAR AND ELECTRONIC CHARGE     90.00000    90.00000
     
       CONVERGENCE TEST
:DTO001: DIFFERENCE SPHERE  1 UP =  0.0000656 DN =  0.0000656 TOT =  0.0001313
:DTO002: DIFFERENCE SPHERE  2 UP =  0.0000949 DN =  0.0000949 TOT =  0.0001898

:DIS  :  CHARGE DISTANCE       ( 0.0000949 for atom    2 spin 1)      0.0003406
 PW Mixed is         2149
 
******************************************************
* MULTISECANT MIXING VER9 RELEASE 10.4.0              *
* Standard Mode with controls                        *
* Fixed density scale                                *
* Regularization       1.000E-04                     *
* Trust Upper Limit    5.000E+00                     *
* Max Number of Memory Steps    8                    *
******************************************************
 
:PWTMP   6.1772E+02  5.7600E+02  7.5905E+02
:PLANE:  PW TOTAL     11.6593 DISTAN   1.27E-03  1.09E-02 %
:CHARG:  CLM/ATOM     57.1156 DISTAN   1.99E-04  3.48E-04 %
 
Step History
        DMIX         DMIXT        Red     Pred      Trust     Lambda    MagRel    MagAbs     Beta
  4   4.8559E-02   4.8559E-02  8.87E-01  9.80E-01  2.71E-01  1.42E+00  4.76E-02  8.15E-02  9.84E-01
  5   1.2140E-01   3.8863E-02  8.08E-01  8.20E-01  3.26E-01  1.63E+00  8.37E-02  1.27E-01  1.00E+00
  6   2.4617E-01   9.5310E-02  7.12E-01  7.19E-01  5.15E-01  2.04E+00  1.42E-01  1.75E-01  1.00E+00
  7   3.5000E-01   2.1504E-01  5.48E-01  5.68E-01  9.23E-01  1.33E+00  3.04E-01  2.66E-01  1.00E+00
  8   3.5000E-01   3.5000E-01  1.24E-01  1.55E-01  2.21E+00  1.40E+00  9.93E-01  4.75E-01  1.00E+00
  9   2.2758E-01   2.2758E-01  5.83E-01  7.71E-01  8.01E+00  1.15E+00  3.51E-01  2.09E-02  1.00E+00
 10   3.5000E-01   3.5000E-01  1.21E-01  2.49E-01  1.07E+01  9.00E-01  9.36E-01  3.24E-02  1.00E+00
 11   2.7974E-01   2.7974E-01  4.57E-01  5.70E-01  1.42E+01  1.26E+00  7.90E-01  3.32E-03  1.00E+00
 12   3.2552E-01   3.2552E-01 -1.00E+00  5.05E-01  1.90E+01  1.00E+00  6.64E-01  1.28E-03  1.00E+00
:JACOBIANS    2.060E+00   1.144E+00
  
:NORMS:  1/Froebius, Min, Max, Used   0.8601E+00  0.7425E+00  0.1081E+01  0.8601E+00
:INFO :  Number of Memory Steps    8 Skipping    3
:INFO :  SLambda=    1.2663781878  Max    1.2663781878
:PREDicted Charge, CTotal, PW Trust    1.017E-04   7.783E-04   2.317E-03
:PREDicted DMix, Beta, BLim   5.0376E-01  1.2707E+00  2.1204E+01

Eigenvalues, unscaled except for SY+YY
   #     SY Real        SY Imag          SS             YY         SY+YY Real      SY+YY Imag
   1   2.774354E+00   0.000000E+00   2.981117E+00   4.264056E+00   7.729078E+00   0.000000E+00
   2   1.720995E+00   0.000000E+00   1.699294E+00   1.781106E+00   3.962944E+00   0.000000E+00
   3   1.064814E+00   0.000000E+00   9.649270E-01   1.247870E+00   2.597955E+00   0.000000E+00
   4   2.557418E-01   0.000000E+00   1.802980E-01   3.673004E-01   6.374373E-01   0.000000E+00
   5   2.057036E-01   0.000000E+00   8.652860E-02   3.282781E-01   6.865671E-01   0.000000E+00
   6   9.105249E-03   0.000000E+00   6.412025E-03   1.136307E-02   2.315443E-02   0.000000E+00
   7   7.523425E-07   0.000000E+00   9.586760E-06   2.472999E-05   2.590215E-06   0.000000E+00
   8   1.484301E-05   0.000000E+00   3.691905E-07   1.612291E-06   4.421015E-05   0.000000E+00
 
:INFO :  Singular value  7.763E+00 Weight  1.000E+00 Projection -5.154E-05
:INFO :  Singular value  3.956E+00 Weight  1.000E+00 Projection -6.895E-05
:INFO :  Singular value  2.596E+00 Weight  1.000E+00 Projection -3.892E-04
:INFO :  Singular value  6.875E-01 Weight  1.000E+00 Projection -5.541E-04
:INFO :  Singular value  6.354E-01 Weight  1.000E+00 Projection  5.262E-04
:INFO :  Singular value  2.316E-02 Weight  9.997E-01 Projection -5.089E-04
:INFO :  Singular value  4.421E-05 Weight  1.063E-02 Projection -8.314E-04
:INFO :  Singular value  2.590E-06 Weight  3.690E-05 Projection -4.448E-06
:RANK :  ACTIVE   6.01/8  =  75.13 % ; YY RANK   6.00/8  =  75.02 %
 
:BLIM :  VZERO Control Off
:TRUST:  Step 2.25E+01  Charge 9.37E-02 (e) CTO  4.60E-01 (e) PW  4.67E-01 (e)
:DIRM :  MEMORY  8/8  SCALE   1.000 RED  0.39 PRED  0.51 NEXT  0.58 
:TRAVE:  Charge 3.32E-03 (e) CTO  1.74E-02 (e) PW  8.67E-03 (e)
:DIRP :  |MSR1|= 4.877E-04 |PRATT|= 6.339E-04 ANGLE=   8.2 DEGREES
:DIRQ :  |MSR1|= 2.872E-04 |PRATT|= 3.977E-04 ANGLE=  31.9 DEGREES
:DIRT :  |MSR1|= 5.659E-04 |PRATT|= 7.484E-04 ANGLE=  17.9 DEGREES
:MIX  :   MSE1   REGULARIZATION:  4.26E-04 GREED: 0.35000  Newton 1.00  0.7562                
     
       CHARGES OF MIXED CHARGE DENSITY
:CTO   : INTERSTITIAL     UP =     6.799715 DN =     6.799715 TOT =    13.599430
:CPC   : PW Pseudocharge  UP =    13.233290 DN =    13.233290 TOT =    26.466580
:CTO001: CHARGE SPHERE  1 UP =     5.247743 DN =     5.247743 TOT =    10.495487
:CTO002: CHARGE SPHERE  2 UP =     3.742843 DN =     3.742843 TOT =     7.485685

       SPIN MAGNETIC MOMENTS OF MIXED CHARGE DENSITY
:MMINT:  MAGNETIC MOMENT IN INTERSTITIAL  =   -0.00000
:MMI001: MAGNETIC MOMENT IN SPHERE   1    =    0.00000
:MMI002: MAGNETIC MOMENT IN SPHERE   2    =    0.00000
:MMTOT:  SPIN MAGNETIC MOMENT IN CELL     =    0.00000

:NEC03: NUCLEAR AND ELECTRONIC CHARGE     90.00000    90.00000

PW CHANGE     H    K    L             Current                    Change               Residue
:PUP001:      0    0    0  2.63920847E-02 0.00000000E+00 -1.082E-06  0.000E+00 -1.205E-06  0.000E+00
:PUP002:      0    0   -1 -2.47435137E-11 0.00000000E+00 -1.583E-13  0.000E+00 -1.996E-13  0.000E+00
:PUP003:     -1    0    0 -1.92177303E-02 0.00000000E+00  1.076E-06  0.000E+00  1.846E-06  0.000E+00
:PUP004:     -1    0   -1  2.22182405E-02-3.84831205E-02 -1.404E-06  2.432E-06 -1.709E-06  2.960E-06
:PUP005:     -1    0    1  1.33437849E-02 2.31121129E-02 -8.911E-07 -1.543E-06 -1.226E-06 -2.124E-06
:PUP006:      0    0   -2 -4.00212019E-11 0.00000000E+00 -7.108E-14  0.000E+00 -8.973E-14  0.000E+00
:PUP007:     -2    1    0 -7.86335203E-03-1.17826768E-02  6.314E-07  5.722E-07  5.479E-07  6.024E-07
:PUP008:     -1   -1    0 -7.86335203E-03 1.17826768E-02  6.314E-07 -5.722E-07  5.479E-07 -6.024E-07
:PUP009:     -1    0   -2  1.88136644E-02 3.25862241E-02 -8.362E-07 -1.448E-06 -9.134E-07 -1.582E-06
:PUP010:     -1    0    2  3.37283173E-04-5.84191621E-04  4.184E-07 -7.247E-07  4.037E-07 -6.992E-07
:PUP011:     -2    1   -1 -2.33394775E-02-1.22408604E-02  1.204E-06  1.917E-08  1.522E-06 -1.323E-07
:PUP012:     -1   -1   -1  2.22706346E-02 1.40921507E-02 -6.188E-07 -1.033E-06 -6.465E-07 -1.384E-06
  
:PDN001:      0    0    0  2.63920847E-02 0.00000000E+00 -1.082E-06  0.000E+00 -1.205E-06  0.000E+00
:PDN002:      0    0   -1 -2.47435137E-11 0.00000000E+00 -1.583E-13  0.000E+00 -1.996E-13  0.000E+00
:PDN003:     -1    0    0 -1.92177303E-02 0.00000000E+00  1.076E-06  0.000E+00  1.846E-06  0.000E+00
:PDN004:     -1    0   -1  2.22182405E-02-3.84831206E-02 -1.404E-06  2.432E-06 -1.709E-06  2.960E-06
:PDN005:     -1    0    1  1.33437850E-02 2.31121129E-02 -8.911E-07 -1.543E-06 -1.226E-06 -2.124E-06
:PDN006:      0    0   -2 -4.00212019E-11 0.00000000E+00 -7.108E-14  0.000E+00 -8.973E-14  0.000E+00
:PDN007:     -2    1    0 -7.86335203E-03-1.17826768E-02  6.314E-07  5.722E-07  5.479E-07  6.024E-07
:PDN008:     -1   -1    0 -7.86335203E-03 1.17826768E-02  6.314E-07 -5.722E-07  5.479E-07 -6.024E-07
:PDN009:     -1    0   -2  1.88136644E-02 3.25862241E-02 -8.362E-07 -1.448E-06 -9.134E-07 -1.582E-06
:PDN010:     -1    0    2  3.37283172E-04-5.84191619E-04  4.184E-07 -7.247E-07  4.037E-07 -6.992E-07
:PDN011:     -2    1   -1 -2.33394775E-02-1.22408604E-02  1.204E-06  1.917E-08  1.522E-06 -1.323E-07
:PDN012:     -1   -1   -1  2.22706346E-02 1.40921507E-02 -6.188E-07 -1.033E-06 -6.465E-07 -1.384E-06

:ENE  : *WARNING** TOTAL ENERGY IN Ry =        -2644.25706242

       TOTAL FORCE IN mRy/a.u. = |F|     Fx             Fy             Fz     with/without FOR in case.in2
:FOR001:   1.ATOM          2.613          0.000          0.000          2.613 partial forces
:FOR002:   2.ATOM        151.117       -117.026        -60.813        -73.777 partial forces
       TOTAL FORCE WITH RESPECT TO GLOBAL CARTESIAN COORDINATES:
:FCA001:   1.ATOM                         2.263          1.306          0.000 partial forces
:FCA002:   2.ATOM                      -117.026        -60.813        -73.777 partial forces
       TOTAL FORCE WITH RESPECT TO THE GLOBAL COORDINATE SYSTEM:
:FGL001:   1.ATOM                 2.612858839     2.612858839     0.000000000 partial forces
:FGL002:   2.ATOM              -135.130173760  -128.377855162   -73.777006264 partial forces
