
:LABEL1: Calculations in /home/cmueller/wien/FZU/src/FeRh/FFM/2000k
:LABEL2: on cv036 at Wed Mar 12 11:56:39 AM CET 2025
:LABEL3: using WIEN2k_19.1 (Release 25/6/2019) in /home/cmueller/WIENROOT
:LABEL4: using the command: runsp_lapw
 Flat Integration
 New Mode for Coulomb Integral
 Consistent 3/8+Simpson combinations
 Extension of core to zero
 LDM version in phi
 Fifth-order quadrature in outwin


            ---------
:ITE001:  1. ITERATION
            ---------

:NATO :    3 INDEPENDENT AND    4 TOTAL ATOMS IN UNITCELL
       SUBSTANCE: FeRh                                                        

       LATTICE                      = F   
:POT  : POTENTIAL OPTION EX_PBE EC_PBE VX_PBE VC_PBE
:LAT  : LATTICE CONSTANTS= 11.27222 11.27222 11.27222    1.571    1.571    1.571
:VOL  : UNIT CELL VOLUME =     358.07036
       MODE OF CALCULATION IS       = RELA
       SPINPOLARIZED CALCULATION
:IFFT  : FFT-parameters:   90   90   90 Factor: 2.00


   CONVERGENCE PARAMETER FOR PSEUDOCHARGE: NCON=  9
   MAXIMAL VALUE OF RMT(JATOM)*ABSK(NKK) : RK  =29.05063


:VKCOUL :  VK-COUL convergence: 0.126E-05
       ATOMNUMBER=  1 Fe1        VCOUL-ZERO =  0.65836E+00
       ATOMNUMBER=  2 Fe2        VCOUL-ZERO =  0.65836E+00
       ATOMNUMBER=  3 Rh1        VCOUL-ZERO =  0.62973E+00
:FIT001: LUSE= 13 SIGMA OF V-XC FIT FOR ATOM  1  0.7350795E-02
:FIT001: LUSE= 13 SIGMA OF V-XC FIT FOR ATOM  1  0.2536863E-02
:FIT002: LUSE= 13 SIGMA OF V-XC FIT FOR ATOM  2  0.7350795E-02
:FIT002: LUSE= 13 SIGMA OF V-XC FIT FOR ATOM  2  0.2536863E-02
:FIT003: LUSE= 13 SIGMA OF V-XC FIT FOR ATOM  3  0.1535975E-02
:FIT003: LUSE= 13 SIGMA OF V-XC FIT FOR ATOM  3  0.2664318E-03
:DEN  : DENSITY INTEGRAL  =         -9889.60555609   (Ry)
       ELS_POTENTIAL_AT Z=0 and Z=0.5:  -0.23886  -0.23886
       ELS_POTENTIAL_AT Y=0 and Y=0.5:   0.00000   0.00000
:VZERO:v0,v0c,v0x  -1.05054  -0.23886  -0.81168 v5,v5c,v5x  -1.05054  -0.23886  -0.81168
:VZERY:v0,v0c,v0x  -0.92344   0.00000  -0.92344 v5,v5c,v5x  -0.92344   0.00000  -0.92344
:VZERX:v0,v0c,v0x  -0.92344   0.00000  -0.92344 v5,v5c,v5x  -0.92344   0.00000  -0.92344
:LMAX-WF:   10   Non-Spherical LMAX:   4

          ATOMIC SPHERE DEPENDENT PARAMETERS FOR ATOM  Fe1       
:e__0001: OVERALL ENERGY PARAMETER IS    0.3000
          OVERALL BASIS SET ON ATOM IS LAPW
:E1_0001: E( 1)=    0.3000
             APW+lo
:E1_0001: E( 1)=   -3.1653   E(BOTTOM)=   -3.198   E(TOP)=   -3.132  1  2   181
             LOCAL ORBITAL
:E2_0001: E( 2)=    0.6147   E(BOTTOM)=    0.370   E(TOP)=    0.859  0  1   131
             APW+lo
:E0_0001: E( 0)=    0.3000
             APW+lo

          ATOMIC SPHERE DEPENDENT PARAMETERS FOR ATOM  Fe2       
:e__0002: OVERALL ENERGY PARAMETER IS    0.3000
          OVERALL BASIS SET ON ATOM IS LAPW
:E1_0002: E( 1)=    0.3000
             APW+lo
:E1_0002: E( 1)=   -3.1653   E(BOTTOM)=   -3.198   E(TOP)=   -3.132  1  2   181
             LOCAL ORBITAL
:E2_0002: E( 2)=    0.6147   E(BOTTOM)=    0.370   E(TOP)=    0.859  0  1   131
             APW+lo
:E0_0002: E( 0)=    0.3000
             APW+lo

          ATOMIC SPHERE DEPENDENT PARAMETERS FOR ATOM  Rh1       
:e__0003: OVERALL ENERGY PARAMETER IS    0.3000
          OVERALL BASIS SET ON ATOM IS LAPW
:E1_0003: E( 1)=    0.3000
             APW+lo
:E1_0003: E( 1)=   -2.6264   E(BOTTOM)=   -2.727   E(TOP)=   -2.526  2  3   169
             LOCAL ORBITAL
:E2_0003: E( 2)=    0.3000   E(BOTTOM)=    0.162   E(TOP)= -200.000  1 -1    93
             APW+lo
:E0_0003: E( 0)=    0.3000
             APW+lo

       K=   0.00000   0.00000   0.00000            1
:RKM  : MATRIX SIZE   185LOs:  48  RKM= 6.64  WEIGHT= 1.00  PGR:    
       EIGENVALUES ARE:
:EIG00001:      -3.1592692   -3.1592692   -3.1592692   -3.1573674   -3.1573674
:EIG00006:      -3.1573674   -2.6092520   -2.6092520   -2.6092520   -2.6012618
:EIG00011:      -2.6012618   -2.6012618    0.0702128    0.3403113    0.3403113
:EIG00016:       0.4127452    0.4127452    0.4127452    0.5386641    0.5386641
:EIG00021:       0.5386641    0.5742451    0.5742451    0.5742451    0.7150896
:EIG00026:       0.7150896    0.7283402    0.7283402    0.7773508    0.7773508
:EIG00031:       0.8113171    0.8113171    0.8113171    1.2586075    1.3237486
:EIG00036:       1.3237486    1.3237486    1.3308865    1.3308865    1.3308865
:EIG00041:       1.4580028    1.4580028    1.4580028    1.4995530
       ********************************************************

:KPT   :      NUMBER OF K-POINTS:    72
:LMAX-WF:   10   Non-Spherical LMAX:   4

          ATOMIC SPHERE DEPENDENT PARAMETERS FOR ATOM  Fe1       
:e__0001: OVERALL ENERGY PARAMETER IS    0.3000
          OVERALL BASIS SET ON ATOM IS LAPW
:E1_0001: E( 1)=    0.3000
             APW+lo
:E1_0001: E( 1)=   -2.9761   E(BOTTOM)=   -3.010   E(TOP)=   -2.942  1  2   199
             LOCAL ORBITAL
:E2_0001: E( 2)=    0.5413   E(BOTTOM)=    0.541   E(TOP)= -200.000  0 -1    95
             APW+lo
:E0_0001: E( 0)=    0.3000
             APW+lo

          ATOMIC SPHERE DEPENDENT PARAMETERS FOR ATOM  Fe2       
:e__0002: OVERALL ENERGY PARAMETER IS    0.3000
          OVERALL BASIS SET ON ATOM IS LAPW
:E1_0002: E( 1)=    0.3000
             APW+lo
:E1_0002: E( 1)=   -2.9761   E(BOTTOM)=   -3.010   E(TOP)=   -2.942  1  2   199
             LOCAL ORBITAL
:E2_0002: E( 2)=    0.5413   E(BOTTOM)=    0.541   E(TOP)= -200.000  0 -1    95
             APW+lo
:E0_0002: E( 0)=    0.3000
             APW+lo

          ATOMIC SPHERE DEPENDENT PARAMETERS FOR ATOM  Rh1       
:e__0003: OVERALL ENERGY PARAMETER IS    0.3000
          OVERALL BASIS SET ON ATOM IS LAPW
:E1_0003: E( 1)=    0.3000
             APW+lo
:E1_0003: E( 1)=   -2.5251   E(BOTTOM)=   -2.624   E(TOP)=   -2.426  2  3   176
             LOCAL ORBITAL
:E2_0003: E( 2)=    0.3000   E(BOTTOM)=    0.279   E(TOP)= -200.000  1 -1    88
             APW+lo
:E0_0003: E( 0)=    0.3000
             APW+lo

       K=   0.00000   0.00000   0.00000            1
:RKM  : MATRIX SIZE   185LOs:  48  RKM= 6.64  WEIGHT= 1.00  PGR:    
       EIGENVALUES ARE:
:EIG00001:      -2.9699321   -2.9699321   -2.9699321   -2.9679656   -2.9679656
:EIG00006:      -2.9679656   -2.5081439   -2.5081439   -2.5081439   -2.5001318
:EIG00011:      -2.5001318   -2.5001318    0.2185870    0.4810755    0.4810755
:EIG00016:       0.5433070    0.5433070    0.5433070    0.7099103    0.7099103
:EIG00021:       0.7099103    0.7183062    0.7183062    0.7183062    0.8769347
:EIG00026:       0.8769347    0.8912694    0.8912694    0.9143182    0.9143182
:EIG00031:       0.9685508    0.9685508    0.9685508    1.4095004    1.4799114
:EIG00036:       1.4799114    1.4799114    1.5019596    1.5019596    1.5019596
:EIG00041:       1.5990375    1.5990375    1.5990375    1.6298367
       ********************************************************

:KPT   :      NUMBER OF K-POINTS:    72
:GAP (global)   :    0.0    Ry =     0.0   eV (metal)
:GAP (this spin):    0.0    Ry =     0.0   eV (metal)
         Bandranges (emin - emax) and occupancy:
:BAN00025:  25    0.629762    0.716015  1.00000000
:BAN00026:  26    0.647736    0.723656  1.00000000
:BAN00027:  27    0.660428    0.728340  1.00000000
:BAN00028:  28    0.678397    0.728340  1.00000000
:BAN00029:  29    0.704477    0.777351  1.00000000
:BAN00030:  30    0.717152    0.777351  1.00000000
:BAN00031:  31    0.723767    0.811317  1.00000000
:BAN00032:  32    0.743920    0.811317  1.00000000
:BAN00033:  33    0.752637    0.830376  1.00123809
:BAN00034:  34    0.783253    1.259429  0.29267653
:BAN00035:  35    0.832498    1.323749  0.00001411
:BAN00036:  36    0.847646    1.323749  0.00000000
:BAN00037:  37    1.281209    1.513164  0.00000000
:BAN00038:  38    1.281209    1.599876  0.00000000
:BAN00039:  39    1.325638    1.799638  0.00000000
:BAN00040:  40    1.330886    1.801459  0.00000000
        Energy to separate low and high energystates:    0.02021


:NOE  : NUMBER OF ELECTRONS          =   58.000

:FER  : F E R M I - ENERGY(TETRAH.M.)=   0.8330104489
:GMA  : POTENTIAL AND CHARGE CUT-OFF  12.00 Ry**.5

:POS001: ATOM    1 X,Y,Z = 0.00000 0.00000 0.00000  MULT= 1  ZZ= 26.000  Fe1       

       LMMAX  5
       LM=   0 0  4 0  4 4  6 0  6 4

:CHA001: TOTAL VALENCE CHARGE INSIDE SPHERE   1 =   8.0270    (RMT=  2.4300 )
:PCS001: PARTIAL CHARGES SPHERE =  1 S,P,D,F,      D-EG,D-T2G 
:QTL001: 0.2564 3.2966 4.4305 0.0318 0.0000 0.0000 0.0000 1.8427 2.5878 0.0000 0.0000 0.0000
        Q-s-low E-s-low   Q-p-low E-p-low   Q-d-low E-d-low   Q-f-low E-f-low
:EPL001:  0.0006 -2.6147    2.9950 -3.1580    0.0014 -2.6103    0.0006 -2.6110
        Q-s-hi  E-s-hi    Q-p-hi  E-p-hi    Q-d-hi  E-d-hi    Q-f-hi  E-f-hi 
:EPH001:  0.2558  0.3427    0.3015  0.5010    4.4292  0.6374    0.0313  0.5920

:POS002: ATOM    2 X,Y,Z = 0.50000 0.00000 0.00000  MULT= 1  ZZ= 26.000  Fe2       

       LMMAX  5
       LM=   0 0  4 0  4 4  6 0  6 4

:CHA002: TOTAL VALENCE CHARGE INSIDE SPHERE   2 =   8.0270    (RMT=  2.4300 )
:PCS002: PARTIAL CHARGES SPHERE =  2 S,P,D,F,      D-EG,D-T2G 
:QTL002: 0.2564 3.2966 4.4305 0.0318 0.0000 0.0000 0.0000 1.8427 2.5878 0.0000 0.0000 0.0000
        Q-s-low E-s-low   Q-p-low E-p-low   Q-d-low E-d-low   Q-f-low E-f-low
:EPL002:  0.0006 -2.6147    2.9950 -3.1580    0.0014 -2.6103    0.0006 -2.6110
        Q-s-hi  E-s-hi    Q-p-hi  E-p-hi    Q-d-hi  E-d-hi    Q-f-hi  E-f-hi 
:EPH002:  0.2558  0.3427    0.3015  0.5010    4.4292  0.6374    0.0313  0.5920

:POS003: ATOM    3 X,Y,Z = 0.25000 0.25000 0.25000  MULT= 2  ZZ= 45.000  Rh1       

       LMMAX  6
       LM=   0 0  4 0  4 4  6 0  6 4 -3 2

:CHA003: TOTAL VALENCE CHARGE INSIDE SPHERE   3 =   7.2932    (RMT=  2.4300 )
:PCS003: PARTIAL CHARGES SPHERE =  3 S,P,D,F,      D-EG,D-T2G 
:QTL003: 0.1917 3.1925 3.8733 0.0277 0.0000 0.0000 0.0000 1.5573 2.3160 0.0000 0.0000 0.0000
        Q-s-low E-s-low   Q-p-low E-p-low   Q-d-low E-d-low   Q-f-low E-f-low
:EPL003:  0.0002 -3.0688    2.9783 -2.6059    0.0004 -3.0823    0.0002 -3.0795
        Q-s-hi  E-s-hi    Q-p-hi  E-p-hi    Q-d-hi  E-d-hi    Q-f-hi  E-f-hi 
:EPH003:  0.1916  0.3446    0.2142  0.5173    3.8729  0.5831    0.0275  0.6096

:CHA  : TOTAL VALENCE CHARGE INSIDE UNIT CELL =      33.293929

:SUM  : SUM OF EIGENVALUES =         -22.275384713



   QTL-B VALUE .EQ.    2.71234   in Band of energy    0.77735   ATOM=    3   L=  2
    Most likely no ghostbands, but adjust Energy-parameters for this ATOM and L


:WARN : QTL-B value eq.   2.71 in Band of energy   0.77735  ATOM=    3  L=  2
:WARN : You should change the E-parameter for this atom and L-value in case.in1 (or try the -in1new switch)
:GAP (global)   :    0.0    Ry =     0.0   eV (metal)
:GAP (this spin):    0.0    Ry =     0.0   eV (metal)
         Bandranges (emin - emax) and occupancy:
:BAN00017:  17    0.543307    0.648272  1.00000000
:BAN00018:  18    0.543307    0.648272  1.00000000
:BAN00019:  19    0.587713    0.709910  1.00000000
:BAN00020:  20    0.635427    0.714748  1.00000000
:BAN00021:  21    0.640390    0.714748  1.00000000
:BAN00022:  22    0.640390    0.773309  1.00000000
:BAN00023:  23    0.641839    0.806301  1.00000000
:BAN00024:  24    0.641839    0.820086  1.00000000
:BAN00025:  25    0.785948    0.877567  0.51687654
:BAN00026:  26    0.818964    0.883465  0.18765600
:BAN00027:  27    0.832103    0.891269  0.00153873
:BAN00028:  28    0.840137    0.891269  0.00000000
:BAN00029:  29    0.866469    0.940516  0.00000000
:BAN00030:  30    0.878277    0.940516  0.00000000
:BAN00031:  31    0.881614    0.968551  0.00000000
:BAN00032:  32    0.905780    0.968551  0.00000000
        Energy to separate low and high energystates:    0.16859


:NOE  : NUMBER OF ELECTRONS          =   58.000

:FER  : F E R M I - ENERGY(TETRAH.M.)=   0.8330104489
:GMA  : POTENTIAL AND CHARGE CUT-OFF  12.00 Ry**.5

:POS001: ATOM    1 X,Y,Z = 0.00000 0.00000 0.00000  MULT= 1  ZZ= 26.000  Fe1       

       LMMAX  5
       LM=   0 0  4 0  4 4  6 0  6 4

:CHA001: TOTAL VALENCE CHARGE INSIDE SPHERE   1 =   5.0676    (RMT=  2.4300 )
:PCS001: PARTIAL CHARGES SPHERE =  1 S,P,D,F,      D-EG,D-T2G 
:QTL001: 0.2345 3.2565 1.5461 0.0230 0.0000 0.0000 0.0000 0.4844 1.0617 0.0000 0.0000 0.0000
        Q-s-low E-s-low   Q-p-low E-p-low   Q-d-low E-d-low   Q-f-low E-f-low
:EPL001:  0.0005 -2.5131    2.9947 -2.9686    0.0013 -2.5089    0.0006 -2.5092
        Q-s-hi  E-s-hi    Q-p-hi  E-p-hi    Q-d-hi  E-d-hi    Q-f-hi  E-f-hi 
:EPH001:  0.2340  0.4545    0.2617  0.6095    1.5448  0.6708    0.0225  0.6630

:POS002: ATOM    2 X,Y,Z = 0.50000 0.00000 0.00000  MULT= 1  ZZ= 26.000  Fe2       

       LMMAX  5
       LM=   0 0  4 0  4 4  6 0  6 4

:CHA002: TOTAL VALENCE CHARGE INSIDE SPHERE   2 =   5.0676    (RMT=  2.4300 )
:PCS002: PARTIAL CHARGES SPHERE =  2 S,P,D,F,      D-EG,D-T2G 
:QTL002: 0.2345 3.2565 1.5461 0.0230 0.0000 0.0000 0.0000 0.4844 1.0617 0.0000 0.0000 0.0000
        Q-s-low E-s-low   Q-p-low E-p-low   Q-d-low E-d-low   Q-f-low E-f-low
:EPL002:  0.0005 -2.5131    2.9947 -2.9686    0.0013 -2.5089    0.0006 -2.5092
        Q-s-hi  E-s-hi    Q-p-hi  E-p-hi    Q-d-hi  E-d-hi    Q-f-hi  E-f-hi 
:EPH002:  0.2340  0.4545    0.2617  0.6095    1.5448  0.6708    0.0225  0.6630

:POS003: ATOM    3 X,Y,Z = 0.25000 0.25000 0.25000  MULT= 2  ZZ= 45.000  Rh1       

       LMMAX  6
       LM=   0 0  4 0  4 4  6 0  6 4 -3 2

:CHA003: TOTAL VALENCE CHARGE INSIDE SPHERE   3 =   6.1219    (RMT=  2.4300 )
:PCS003: PARTIAL CHARGES SPHERE =  3 S,P,D,F,      D-EG,D-T2G 
:QTL003: 0.1860 3.1660 2.7514 0.0152 0.0000 0.0000 0.0000 0.8977 1.8537 0.0000 0.0000 0.0000
        Q-s-low E-s-low   Q-p-low E-p-low   Q-d-low E-d-low   Q-f-low E-f-low
:EPL003:  0.0002 -2.9032    2.9791 -2.5047    0.0004 -2.9111    0.0002 -2.9071
        Q-s-hi  E-s-hi    Q-p-hi  E-p-hi    Q-d-hi  E-d-hi    Q-f-hi  E-f-hi 
:EPH003:  0.1859  0.4747    0.1869  0.6347    2.7510  0.6236    0.0150  0.6819

:CHA  : TOTAL VALENCE CHARGE INSIDE UNIT CELL =      24.706071

:SUM  : SUM OF EIGENVALUES =         -25.009333155



   QTL-B VALUE .EQ.    2.75298   in Band of energy    0.80630   ATOM=    3   L=  2
    Most likely no ghostbands, but adjust Energy-parameters for this ATOM and L


:WARN : QTL-B value eq.   2.75 in Band of energy   0.80630  ATOM=    3  L=  2
:WARN : You should change the E-parameter for this atom and L-value in case.in1 (or try the -in1new switch)

        1.ATOM      Fe1                   5 CORE STATES
:1S 001: 1S                -512.918296422 Ry
:2S 001: 2S                 -58.867098991 Ry
:2PP001: 2P*                -50.560163463 Ry
:2P 001: 2P                 -49.643551060 Ry
:3S 001: 3S                  -5.645944693 Ry

        2.ATOM      Fe2                   5 CORE STATES
:1S 002: 1S                -512.918296422 Ry
:2S 002: 2S                 -58.867098991 Ry
:2PP002: 2P*                -50.560163463 Ry
:2P 002: 2P                 -49.643551060 Ry
:3S 002: 3S                  -5.645944693 Ry

        3.ATOM      Rh1                  10 CORE STATES
:1S 003: 1S               -1691.217931711 Ry
:2S 003: 2S                -244.120073391 Ry
:2PP003: 2P*               -225.926914533 Ry
:2P 003: 2P                -215.298232992 Ry
:3S 003: 3S                 -42.657850310 Ry
:3PP003: 3P*                -35.540511067 Ry
:3P 003: 3P                 -33.712000604 Ry
:3DD003: 3D*                -21.116674177 Ry
:3D 003: 3D                 -20.756126950 Ry
:4S 003: 4S                  -4.950238540 Ry

        1.ATOM      Fe1                   5 CORE STATES
:1S 001: 1S                -512.917485201 Ry
:2S 001: 2S                 -58.785188684 Ry
:2PP001: 2P*                -50.499094941 Ry
:2P 001: 2P                 -49.580706911 Ry
:3S 001: 3S                  -5.453831662 Ry

        2.ATOM      Fe2                   5 CORE STATES
:1S 002: 1S                -512.917485201 Ry
:2S 002: 2S                 -58.785188684 Ry
:2PP002: 2P*                -50.499094941 Ry
:2P 002: 2P                 -49.580706911 Ry
:3S 002: 3S                  -5.453831662 Ry

        3.ATOM      Rh1                  10 CORE STATES
:1S 003: 1S               -1691.216784672 Ry
:2S 003: 2S                -244.099243378 Ry
:2PP003: 2P*               -225.911752519 Ry
:2P 003: 2P                -215.282016486 Ry
:3S 003: 3S                 -42.646082589 Ry
:3PP003: 3P*                -35.526934971 Ry
:3P 003: 3P                 -33.698849186 Ry
:3DD003: 3D*                -21.096779061 Ry
:3D 003: 3D                 -20.736291231 Ry
:4S 003: 4S                  -4.855803339 Ry
:CINT001 Core Integral Atom   1 Up    5.999606 Dn   5.999592 Total  11.999198
:CINT002 Core Integral Atom   2 Up    5.999606 Dn   5.999592 Total  11.999198
:CINT003 Core Integral Atom   3 Up   14.998594 Dn  14.998639 Total  29.997233

       DENSITY AT NUCLEUS
        JATOM        VALENCE       SEMI-CORE          CORE           TOTAL
:RTO001:   1        7.297528        0.000000    15301.555248    15308.852776
:RTO002:   2        7.297528        0.000000    15301.555248    15308.852776
:RTO003:   3       24.732981        0.000000   155310.158130   155334.891111

       HYPERFINE FIELDS FOR THOMSON RADIUS
:HFF001:          161.290           0.000        -305.113        -143.824 (KGAUSS)
:HFF002:          161.290           0.000        -305.113        -143.824 (KGAUSS)
:HFF003:          102.924           0.000        -464.654        -361.730 (KGAUSS)
     
       CHARGES OF NEW CHARGE DENSITY
:NTO   : INTERSTITIAL     UP =     2.653379 DN =     2.326990 TOT =     4.980369
:NPC   : PW Pseudocharge  UP =     6.385751 DN =     5.176854 TOT =    11.562605
:NTO001: CHARGE SPHERE  1 UP =    14.026617 DN =    11.067209 TOT =    25.093826
:NTO002: CHARGE SPHERE  2 UP =    14.026617 DN =    11.067209 TOT =    25.093826
:NTO003: CHARGE SPHERE  3 UP =    22.291839 DN =    21.120549 TOT =    43.412388

:NEC01: NUCLEAR AND ELECTRONIC CHARGE    142.00000   141.99280
     
       CHARGES OF OLD CHARGE DENSITY
:OTO   : INTERSTITIAL     UP =     2.697579 DN =     1.107042 TOT =     3.804621
:OPC   : PW Pseudocharge  UP =    12.529935 DN =     6.327856 TOT =    18.857791
:OTO001: CHARGE SPHERE  1 UP =    14.100211 DN =    11.156686 TOT =    25.256897
:OTO002: CHARGE SPHERE  2 UP =    14.100211 DN =    11.156686 TOT =    25.256897
:OTO003: CHARGE SPHERE  3 UP =    23.052245 DN =    20.790329 TOT =    43.842573

:NEC02: NUCLEAR AND ELECTRONIC CHARGE    142.00000   142.00356
     
       CONVERGENCE TEST
:DTO001: DIFFERENCE SPHERE  1 UP =  0.0617609 DN =  0.6212020 TOT =  0.6829630
:DTO002: DIFFERENCE SPHERE  2 UP =  0.0617610 DN =  0.6212021 TOT =  0.6829631
:DTO003: DIFFERENCE SPHERE  3 UP =  0.5555871 DN =  0.2410364 TOT =  0.7966234

:DIS  :  CHARGE DISTANCE       ( 0.6212021 for atom    2 spin 2)      1.4795865
 PW Mixed is           49
 
******************************************************
* MULTISECANT MIXING VER9 RELEASE 10.4.0              *
* Standard Mode with controls                        *
* Fixed density scale                                *
* Regularization       1.000E-04                     *
* Trust Upper Limit    5.000E+00                     *
* Max Number of Memory Steps    8                    *
******************************************************
 
:PWTMP   1.1765E+02  4.5917E+02  3.5807E+02
:PLANE:  PW TOTAL      4.4201 DISTAN   2.86E+00  6.46E+01 %
:CHARG:  CLM/ATOM    212.0506 DISTAN   4.30E-01  2.03E-01 %
INFO: Reducing dbase  2.50000E-02 1.47959E+00 2.05527E-02
 
Step History
        DMIX         DMIXT        Red     Pred      Trust     Lambda    MagRel    MagAbs     Beta
  1   3.5000E-02   3.5000E-02 -1.00E+00  1.00E+00 -1.00E+01  1.00E+00  3.50E-02  3.50E-02  1.00E+00
:INFO :  Note, Pratt in use
INFO: Reducing dbase  2.05527E-02 1.47959E+00 1.68966E-02
:TRUST:  Step 3.06E-02  Charge 7.50E-02 (e) CTO  2.50E-01 (e) PW  3.50E-01 (e)
:DIRM :  MEMORY  0/ 8 SCALE   1.000
Performing Pseudo Compensation
Final Pseudo Compensation Rescaling     9.99096E-01
Final Pseudo Compensation Rescaling     9.96405E-01
:MIX  :   PRATT  REGULARIZATION:  1.00E-04 GREED: 0.02037                  
     
       CHARGES OF MIXED CHARGE DENSITY
:CTO   : INTERSTITIAL     UP =     2.694283 DN =     1.130949 TOT =     3.825232
:CPC   : PW Pseudocharge  UP =     8.734341 DN =     4.890919 TOT =    13.625260
:CTO001: CHARGE SPHERE  1 UP =    14.098712 DN =    11.154863 TOT =    25.253575
:CTO002: CHARGE SPHERE  2 UP =    14.098712 DN =    11.154863 TOT =    25.253575
:CTO003: CHARGE SPHERE  3 UP =    23.036754 DN =    20.797056 TOT =    43.833810

       SPIN MAGNETIC MOMENTS OF MIXED CHARGE DENSITY
:MMINT:  MAGNETIC MOMENT IN INTERSTITIAL  =    1.56333
:MMI001: MAGNETIC MOMENT IN SPHERE   1    =    2.94385
:MMI002: MAGNETIC MOMENT IN SPHERE   2    =    2.94385
:MMI003: MAGNETIC MOMENT IN SPHERE   3    =    2.23970
:MMTOT:  SPIN MAGNETIC MOMENT IN CELL     =   11.93043

:NEC03: NUCLEAR AND ELECTRONIC CHARGE    142.00000   142.00000

PW CHANGE     H    K    L      Current       Change    Residue
:PUP001:      0    0    0  3.19172576E-02 -1.057E-02 -1.721E-02
:PUP003:      0    0   -2 -1.61615598E-02  1.271E-02  2.311E-02
:PUP004:      0   -2   -2  1.90900317E-02 -6.855E-02 -8.834E-02
:PUP006:     -2   -2   -2  7.24558897E-04  9.214E-03  1.068E-02
:PUP007:      0    0   -4 -7.38456519E-03 -1.733E-02 -1.699E-02
:PUP009:      0   -2   -4  1.03825644E-02  1.341E-02  8.579E-03
:PUP010:     -2   -2   -4 -2.54525733E-02 -3.150E-02 -1.863E-02
:PUP013:      0   -4   -4 -6.66146079E-03 -5.892E-03 -5.697E-04
:PUP015:     -2   -4   -4  3.33159039E-03  1.059E-03 -1.664E-03
:PUP016:      0    0   -6  8.34448630E-04  2.662E-04 -3.399E-04
:PUP017:      0   -2   -6 -4.56082115E-03 -2.477E-03  2.886E-03
:PUP019:     -2   -2   -6  7.53337776E-04 -7.580E-04 -1.479E-03
  
:PDN001:      0    0    0  1.68175534E-02 -3.927E-03  2.423E-04
:PDN003:      0    0   -2 -9.94273166E-03  8.888E-03  1.178E-02
:PDN004:      0   -2   -2  1.67588546E-02 -3.141E-02 -5.049E-02
:PDN006:     -2   -2   -2  6.72459350E-04  5.540E-03  6.982E-03
:PDN007:      0    0   -4 -4.48785545E-03 -8.907E-03 -1.009E-02
:PDN009:      0   -2   -4  8.89488113E-03  6.305E-03  4.115E-03
:PDN010:     -2   -2   -4 -1.86604685E-02 -1.710E-02 -5.257E-03
:PDN013:      0   -4   -4 -5.26546572E-03 -3.040E-03  1.739E-03
:PDN015:     -2   -4   -4  3.11008510E-03 -9.026E-04 -3.810E-03
:PDN016:      0    0   -6  7.86298247E-04 -2.169E-04 -5.217E-04
:PDN017:      0   -2   -6 -3.63421533E-03 -4.138E-04  2.466E-03
:PDN019:     -2   -2   -6  8.02435232E-04 -1.466E-03 -2.221E-03

:ENE  : *WARNING** TOTAL ENERGY IN Ry =       -24232.19447511

 Flat Integration
 New Mode for Coulomb Integral
 Consistent 3/8+Simpson combinations
 Extension of core to zero
 LDM version in phi
 Fifth-order quadrature in outwin


            ---------
:ITE002:  2. ITERATION
            ---------

:NATO :    3 INDEPENDENT AND    4 TOTAL ATOMS IN UNITCELL
       SUBSTANCE: FeRh                                                        

       LATTICE                      = F   
:POT  : POTENTIAL OPTION EX_PBE EC_PBE VX_PBE VC_PBE
:LAT  : LATTICE CONSTANTS= 11.27222 11.27222 11.27222    1.571    1.571    1.571
:VOL  : UNIT CELL VOLUME =     358.07036
       MODE OF CALCULATION IS       = RELA
       SPINPOLARIZED CALCULATION
:IFFT  : FFT-parameters:   90   90   90 Factor: 2.00


   CONVERGENCE PARAMETER FOR PSEUDOCHARGE: NCON=  9
   MAXIMAL VALUE OF RMT(JATOM)*ABSK(NKK) : RK  =29.05063


:VKCOUL :  VK-COUL convergence: 0.474E-07
       ATOMNUMBER=  1 Fe1        VCOUL-ZERO =  0.62910E+00
       ATOMNUMBER=  2 Fe2        VCOUL-ZERO =  0.62910E+00
       ATOMNUMBER=  3 Rh1        VCOUL-ZERO =  0.60011E+00
:FIT001: LUSE= 13 SIGMA OF V-XC FIT FOR ATOM  1  0.7073024E-02
:FIT001: LUSE= 13 SIGMA OF V-XC FIT FOR ATOM  1  0.1867474E-02
:FIT002: LUSE= 13 SIGMA OF V-XC FIT FOR ATOM  2  0.7073024E-02
:FIT002: LUSE= 13 SIGMA OF V-XC FIT FOR ATOM  2  0.1867474E-02
:FIT003: LUSE= 13 SIGMA OF V-XC FIT FOR ATOM  3  0.1434766E-02
:FIT003: LUSE= 13 SIGMA OF V-XC FIT FOR ATOM  3  0.3306403E-03
:DEN  : DENSITY INTEGRAL  =         -9883.59841605   (Ry)
       ELS_POTENTIAL_AT Z=0 and Z=0.5:  -0.21217  -0.21217
       ELS_POTENTIAL_AT Y=0 and Y=0.5:   0.00000   0.00000
:VZERO:v0,v0c,v0x  -0.88636  -0.21217  -0.67419 v5,v5c,v5x  -0.88636  -0.21217  -0.67419
:VZERY:v0,v0c,v0x  -0.86841   0.00000  -0.86841 v5,v5c,v5x  -0.86841   0.00000  -0.86841
:VZERX:v0,v0c,v0x  -0.86841   0.00000  -0.86841 v5,v5c,v5x  -0.86841   0.00000  -0.86841
:LMAX-WF:   10   Non-Spherical LMAX:   4

          ATOMIC SPHERE DEPENDENT PARAMETERS FOR ATOM  Fe1       
:e__0001: OVERALL ENERGY PARAMETER IS    0.5000
          OVERALL BASIS SET ON ATOM IS LAPW
:E1_0001: E( 1)=    0.5000
             APW+lo
:E1_0001: E( 1)=   -3.2056   E(BOTTOM)=   -3.238   E(TOP)=   -3.173  1  2   172
             LOCAL ORBITAL
:E2_0001: E( 2)=    0.5766   E(BOTTOM)=    0.334   E(TOP)=    0.820  0  1   128
             APW+lo
:E0_0001: E( 0)=    0.5000
             APW+lo

          ATOMIC SPHERE DEPENDENT PARAMETERS FOR ATOM  Fe2       
:e__0002: OVERALL ENERGY PARAMETER IS    0.5000
          OVERALL BASIS SET ON ATOM IS LAPW
:E1_0002: E( 1)=    0.5000
             APW+lo
:E1_0002: E( 1)=   -3.2056   E(BOTTOM)=   -3.238   E(TOP)=   -3.173  1  2   172
             LOCAL ORBITAL
:E2_0002: E( 2)=    0.5766   E(BOTTOM)=    0.334   E(TOP)=    0.820  0  1   128
             APW+lo
:E0_0002: E( 0)=    0.5000
             APW+lo

          ATOMIC SPHERE DEPENDENT PARAMETERS FOR ATOM  Rh1       
:e__0003: OVERALL ENERGY PARAMETER IS    0.5000
          OVERALL BASIS SET ON ATOM IS LAPW
:E1_0003: E( 1)=    0.5000
             APW+lo
:E1_0003: E( 1)=   -2.6651   E(BOTTOM)=   -2.765   E(TOP)=   -2.565  2  3   166
             LOCAL ORBITAL
:E2_0003: E( 2)=    0.5000   E(BOTTOM)=    0.127   E(TOP)= -200.000  1 -1    98
             APW+lo
:E0_0003: E( 0)=    0.5000
             APW+lo

       K=   0.00000   0.00000   0.00000            1
:RKM  : MATRIX SIZE   185LOs:  48  RKM= 6.64  WEIGHT= 1.00  PGR:    
       EIGENVALUES ARE:
:EIG00001:      -3.1995664   -3.1995664   -3.1995664   -3.1977307   -3.1977307
:EIG00006:      -3.1977307   -2.6480480   -2.6480480   -2.6480480   -2.6401054
:EIG00011:      -2.6401054   -2.6401054    0.0373293    0.3051637    0.3051637
:EIG00016:       0.3779209    0.3779209    0.3779209    0.5020226    0.5020226
:EIG00021:       0.5020226    0.5372347    0.5372347    0.5372347    0.6768549
:EIG00026:       0.6768549    0.6892526    0.6892526    0.7394019    0.7394019
:EIG00031:       0.7725894    0.7725894    0.7725894    1.2247026    1.2884729
:EIG00036:       1.2884729    1.2884729    1.2971891    1.2971891    1.2971891
:EIG00041:       1.4135817    1.4135817    1.4135817    1.4656554    1.9623153
:EIG00046:       1.9623153    2.0427496    2.1180174    2.1180174    2.1180174
 
       ********************************************************

:KPT   :      NUMBER OF K-POINTS:    72
:LMAX-WF:   10   Non-Spherical LMAX:   4

          ATOMIC SPHERE DEPENDENT PARAMETERS FOR ATOM  Fe1       
:e__0001: OVERALL ENERGY PARAMETER IS    0.5000
          OVERALL BASIS SET ON ATOM IS LAPW
:E1_0001: E( 1)=    0.5000
             APW+lo
:E1_0001: E( 1)=   -3.0156   E(BOTTOM)=   -3.049   E(TOP)=   -2.982  1  2   190
             LOCAL ORBITAL
:E2_0001: E( 2)=    0.5052   E(BOTTOM)=    0.505   E(TOP)= -200.000  0 -1    72
             APW+lo
:E0_0001: E( 0)=    0.5000
             APW+lo

          ATOMIC SPHERE DEPENDENT PARAMETERS FOR ATOM  Fe2       
:e__0002: OVERALL ENERGY PARAMETER IS    0.5000
          OVERALL BASIS SET ON ATOM IS LAPW
:E1_0002: E( 1)=    0.5000
             APW+lo
:E1_0002: E( 1)=   -3.0156   E(BOTTOM)=   -3.049   E(TOP)=   -2.982  1  2   190
             LOCAL ORBITAL
:E2_0002: E( 2)=    0.5052   E(BOTTOM)=    0.505   E(TOP)= -200.000  0 -1    72
             APW+lo
:E0_0002: E( 0)=    0.5000
             APW+lo

          ATOMIC SPHERE DEPENDENT PARAMETERS FOR ATOM  Rh1       
:e__0003: OVERALL ENERGY PARAMETER IS    0.5000
          OVERALL BASIS SET ON ATOM IS LAPW
:E1_0003: E( 1)=    0.5000
             APW+lo
:E1_0003: E( 1)=   -2.5646   E(BOTTOM)=   -2.663   E(TOP)=   -2.466  2  3   173
             LOCAL ORBITAL
:E2_0003: E( 2)=    0.5000   E(BOTTOM)=    0.243   E(TOP)= -200.000  1 -1    88
             APW+lo
:E0_0003: E( 0)=    0.5000
             APW+lo

       K=   0.00000   0.00000   0.00000            1
:RKM  : MATRIX SIZE   185LOs:  48  RKM= 6.64  WEIGHT= 1.00  PGR:    
       EIGENVALUES ARE:
:EIG00001:      -3.0093666   -3.0093666   -3.0093666   -3.0074777   -3.0074777
:EIG00006:      -3.0074777   -2.5475671   -2.5475671   -2.5475671   -2.5396406
:EIG00011:      -2.5396406   -2.5396406    0.1923587    0.4487318    0.4487318
:EIG00016:       0.5113973    0.5113973    0.5113973    0.6762475    0.6762475
:EIG00021:       0.6762475    0.6819862    0.6819862    0.6819862    0.8394618
:EIG00026:       0.8394618    0.8520613    0.8520613    0.8766358    0.8766358
:EIG00031:       0.9291401    0.9291401    0.9291401    1.3796821    1.4525007
:EIG00036:       1.4525007    1.4525007    1.4703499    1.4703499    1.4703499
:EIG00041:       1.5571472    1.5571472    1.5571472    1.5991860    2.1760691
:EIG00046:       2.1760691    2.1838548
 
       ********************************************************

:KPT   :      NUMBER OF K-POINTS:    72
:GAP (global)   :    0.0    Ry =     0.0   eV (metal)
:GAP (this spin):    0.0    Ry =     0.0   eV (metal)
         Bandranges (emin - emax) and occupancy:
:BAN00025:  25    0.593833    0.677720  1.00000000
:BAN00026:  26    0.610683    0.684752  1.00000000
:BAN00027:  27    0.622832    0.689253  1.00000000
:BAN00028:  28    0.640632    0.689253  1.00000000
:BAN00029:  29    0.666651    0.739402  1.00000000
:BAN00030:  30    0.679630    0.739402  1.00000000
:BAN00031:  31    0.684718    0.772589  1.00000000
:BAN00032:  32    0.705853    0.772589  1.00000000
:BAN00033:  33    0.714555    0.791406  1.00108505
:BAN00034:  34    0.745307    1.224703  0.30653317
:BAN00035:  35    0.793513    1.288473  0.00016356
:BAN00036:  36    0.810153    1.288473  0.00000000
:BAN00037:  37    1.242486    1.474347  0.00000000
:BAN00038:  38    1.242486    1.560083  0.00000000
:BAN00039:  39    1.289621    1.766287  0.00000000
:BAN00040:  40    1.297189    1.767010  0.00000000
        Energy to separate low and high energystates:   -0.01267


:NOE  : NUMBER OF ELECTRONS          =   58.000

:FER  : F E R M I - ENERGY(TETRAH.M.)=   0.7965151176
:GMA  : POTENTIAL AND CHARGE CUT-OFF  12.00 Ry**.5

:POS001: ATOM    1 X,Y,Z = 0.00000 0.00000 0.00000  MULT= 1  ZZ= 26.000  Fe1       

       LMMAX  5
       LM=   0 0  4 0  4 4  6 0  6 4

:CHA001: TOTAL VALENCE CHARGE INSIDE SPHERE   1 =   8.0338    (RMT=  2.4300 )
:PCS001: PARTIAL CHARGES SPHERE =  1 S,P,D,F,      D-EG,D-T2G 
:QTL001: 0.2560 3.2948 4.4398 0.0316 0.0000 0.0000 0.0000 1.8439 2.5960 0.0000 0.0000 0.0000
        Q-s-low E-s-low   Q-p-low E-p-low   Q-d-low E-d-low   Q-f-low E-f-low
:EPL001:  0.0006 -2.6535    2.9951 -3.1984    0.0014 -2.6491    0.0006 -2.6497
        Q-s-hi  E-s-hi    Q-p-hi  E-p-hi    Q-d-hi  E-d-hi    Q-f-hi  E-f-hi 
:EPH001:  0.2554  0.3090    0.2997  0.4662    4.4385  0.5994    0.0310  0.5557

:POS002: ATOM    2 X,Y,Z = 0.50000 0.00000 0.00000  MULT= 1  ZZ= 26.000  Fe2       

       LMMAX  5
       LM=   0 0  4 0  4 4  6 0  6 4

:CHA002: TOTAL VALENCE CHARGE INSIDE SPHERE   2 =   8.0338    (RMT=  2.4300 )
:PCS002: PARTIAL CHARGES SPHERE =  2 S,P,D,F,      D-EG,D-T2G 
:QTL002: 0.2560 3.2948 4.4398 0.0316 0.0000 0.0000 0.0000 1.8439 2.5960 0.0000 0.0000 0.0000
        Q-s-low E-s-low   Q-p-low E-p-low   Q-d-low E-d-low   Q-f-low E-f-low
:EPL002:  0.0006 -2.6535    2.9951 -3.1984    0.0014 -2.6491    0.0006 -2.6497
        Q-s-hi  E-s-hi    Q-p-hi  E-p-hi    Q-d-hi  E-d-hi    Q-f-hi  E-f-hi 
:EPH002:  0.2554  0.3090    0.2997  0.4662    4.4385  0.5994    0.0310  0.5557

:POS003: ATOM    3 X,Y,Z = 0.25000 0.25000 0.25000  MULT= 2  ZZ= 45.000  Rh1       

       LMMAX  6
       LM=   0 0  4 0  4 4  6 0  6 4 -3 2

:CHA003: TOTAL VALENCE CHARGE INSIDE SPHERE   3 =   7.3010    (RMT=  2.4300 )
:PCS003: PARTIAL CHARGES SPHERE =  3 S,P,D,F,      D-EG,D-T2G 
:QTL003: 0.1911 3.1910 3.8836 0.0274 0.0000 0.0000 0.0000 1.5603 2.3233 0.0000 0.0000 0.0000
        Q-s-low E-s-low   Q-p-low E-p-low   Q-d-low E-d-low   Q-f-low E-f-low
:EPL003:  0.0002 -3.1092    2.9784 -2.6447    0.0004 -3.1226    0.0002 -3.1206
        Q-s-hi  E-s-hi    Q-p-hi  E-p-hi    Q-d-hi  E-d-hi    Q-f-hi  E-f-hi 
:EPH003:  0.1909  0.3105    0.2125  0.4822    3.8832  0.5472    0.0272  0.5722

:CHA  : TOTAL VALENCE CHARGE INSIDE UNIT CELL =      33.307782

:SUM  : SUM OF EIGENVALUES =         -23.518398196

:GAP (global)   :    0.0    Ry =     0.0   eV (metal)
:GAP (this spin):    0.0    Ry =     0.0   eV (metal)
         Bandranges (emin - emax) and occupancy:
:BAN00017:  17    0.511397    0.613380  1.00000000
:BAN00018:  18    0.511397    0.613380  1.00000000
:BAN00019:  19    0.554281    0.676247  1.00000000
:BAN00020:  20    0.601590    0.680011  1.00000000
:BAN00021:  21    0.605886    0.680011  1.00000000
:BAN00022:  22    0.605886    0.736648  1.00000000
:BAN00023:  23    0.608178    0.768724  1.00000000
:BAN00024:  24    0.608178    0.783851  1.00000000
:BAN00025:  25    0.752085    0.839950  0.51432425
:BAN00026:  26    0.782588    0.844769  0.17755044
:BAN00027:  27    0.795450    0.852061  0.00034352
:BAN00028:  28    0.803280    0.852061  0.00000000
:BAN00029:  29    0.833625    0.901919  0.00000000
:BAN00030:  30    0.840728    0.901919  0.00000000
:BAN00031:  31    0.843226    0.929140  0.00000000
:BAN00032:  32    0.868143    0.929140  0.00000000
        Energy to separate low and high energystates:    0.14236


:NOE  : NUMBER OF ELECTRONS          =   58.000

:FER  : F E R M I - ENERGY(TETRAH.M.)=   0.7965151176
:GMA  : POTENTIAL AND CHARGE CUT-OFF  12.00 Ry**.5

:POS001: ATOM    1 X,Y,Z = 0.00000 0.00000 0.00000  MULT= 1  ZZ= 26.000  Fe1       

       LMMAX  5
       LM=   0 0  4 0  4 4  6 0  6 4

:CHA001: TOTAL VALENCE CHARGE INSIDE SPHERE   1 =   5.0647    (RMT=  2.4300 )
:PCS001: PARTIAL CHARGES SPHERE =  1 S,P,D,F,      D-EG,D-T2G 
:QTL001: 0.2332 3.2493 1.5522 0.0226 0.0000 0.0000 0.0000 0.4874 1.0648 0.0000 0.0000 0.0000
        Q-s-low E-s-low   Q-p-low E-p-low   Q-d-low E-d-low   Q-f-low E-f-low
:EPL001:  0.0005 -2.5526    2.9948 -3.0081    0.0013 -2.5483    0.0006 -2.5486
        Q-s-hi  E-s-hi    Q-p-hi  E-p-hi    Q-d-hi  E-d-hi    Q-f-hi  E-f-hi 
:EPH001:  0.2326  0.4260    0.2545  0.5764    1.5509  0.6370    0.0220  0.6283

:POS002: ATOM    2 X,Y,Z = 0.50000 0.00000 0.00000  MULT= 1  ZZ= 26.000  Fe2       

       LMMAX  5
       LM=   0 0  4 0  4 4  6 0  6 4

:CHA002: TOTAL VALENCE CHARGE INSIDE SPHERE   2 =   5.0647    (RMT=  2.4300 )
:PCS002: PARTIAL CHARGES SPHERE =  2 S,P,D,F,      D-EG,D-T2G 
:QTL002: 0.2332 3.2493 1.5522 0.0226 0.0000 0.0000 0.0000 0.4874 1.0648 0.0000 0.0000 0.0000
        Q-s-low E-s-low   Q-p-low E-p-low   Q-d-low E-d-low   Q-f-low E-f-low
:EPL002:  0.0005 -2.5526    2.9948 -3.0081    0.0013 -2.5483    0.0006 -2.5486
        Q-s-hi  E-s-hi    Q-p-hi  E-p-hi    Q-d-hi  E-d-hi    Q-f-hi  E-f-hi 
:EPH002:  0.2326  0.4260    0.2545  0.5764    1.5509  0.6370    0.0220  0.6283

:POS003: ATOM    3 X,Y,Z = 0.25000 0.25000 0.25000  MULT= 2  ZZ= 45.000  Rh1       

       LMMAX  6
       LM=   0 0  4 0  4 4  6 0  6 4 -3 2

:CHA003: TOTAL VALENCE CHARGE INSIDE SPHERE   3 =   6.1384    (RMT=  2.4300 )
:PCS003: PARTIAL CHARGES SPHERE =  3 S,P,D,F,      D-EG,D-T2G 
:QTL003: 0.1852 3.1611 2.7740 0.0148 0.0000 0.0000 0.0000 0.9096 1.8644 0.0000 0.0000 0.0000
        Q-s-low E-s-low   Q-p-low E-p-low   Q-d-low E-d-low   Q-f-low E-f-low
:EPL003:  0.0002 -2.9430    2.9793 -2.5441    0.0004 -2.9509    0.0002 -2.9471
        Q-s-hi  E-s-hi    Q-p-hi  E-p-hi    Q-d-hi  E-d-hi    Q-f-hi  E-f-hi 
:EPH003:  0.1850  0.4456    0.1817  0.6019    2.7736  0.5899    0.0146  0.6476

:CHA  : TOTAL VALENCE CHARGE INSIDE UNIT CELL =      24.692218

:SUM  : SUM OF EIGENVALUES =         -25.909635817



   QTL-B VALUE .EQ.    2.67320   in Band of energy    0.80327   ATOM=    2   L=  2
    Most likely no ghostbands, but adjust Energy-parameters for this ATOM and L


:WARN : QTL-B value eq.   2.67 in Band of energy   0.80327  ATOM=    2  L=  2
:WARN : You should change the E-parameter for this atom and L-value in case.in1 (or try the -in1new switch)

        1.ATOM      Fe1                   5 CORE STATES
:1S 001: 1S                -512.965783990 Ry
:2S 001: 2S                 -58.914163953 Ry
:2PP001: 2P*                -50.607357501 Ry
:2P 001: 2P                 -49.690731326 Ry
:3S 001: 3S                  -5.686855049 Ry

        2.ATOM      Fe2                   5 CORE STATES
:1S 002: 1S                -512.965783998 Ry
:2S 002: 2S                 -58.914163960 Ry
:2PP002: 2P*                -50.607357508 Ry
:2P 002: 2P                 -49.690731333 Ry
:3S 002: 3S                  -5.686855054 Ry

        3.ATOM      Rh1                  10 CORE STATES
:1S 003: 1S               -1691.265848492 Ry
:2S 003: 2S                -244.167369324 Ry
:2PP003: 2P*               -225.974391283 Ry
:2P 003: 2P                -215.345670117 Ry
:3S 003: 3S                 -42.702705004 Ry
:3PP003: 3P*                -35.585427278 Ry
:3P 003: 3P                 -33.756828439 Ry
:3DD003: 3D*                -21.161748443 Ry
:3D 003: 3D                 -20.801170107 Ry
:4S 003: 4S                  -4.989964991 Ry

        1.ATOM      Fe1                   5 CORE STATES
:1S 001: 1S                -512.964994191 Ry
:2S 001: 2S                 -58.831876764 Ry
:2PP001: 2P*                -50.546011842 Ry
:2P 001: 2P                 -49.627601515 Ry
:3S 001: 3S                  -5.493891785 Ry

        2.ATOM      Fe2                   5 CORE STATES
:1S 002: 1S                -512.964994199 Ry
:2S 002: 2S                 -58.831876771 Ry
:2PP002: 2P*                -50.546011849 Ry
:2P 002: 2P                 -49.627601522 Ry
:3S 002: 3S                  -5.493891790 Ry

        3.ATOM      Rh1                  10 CORE STATES
:1S 003: 1S               -1691.264728783 Ry
:2S 003: 2S                -244.146680897 Ry
:2PP003: 2P*               -225.959336013 Ry
:2P 003: 2P                -215.329566720 Ry
:3S 003: 3S                 -42.691038696 Ry
:3PP003: 3P*                -35.571963909 Ry
:3P 003: 3P                 -33.743787849 Ry
:3DD003: 3D*                -21.142003911 Ry
:3D 003: 3D                 -20.781484931 Ry
:4S 003: 4S                  -4.896196900 Ry
:CINT001 Core Integral Atom   1 Up    5.999609 Dn   5.999594 Total  11.999203
:CINT002 Core Integral Atom   2 Up    5.999609 Dn   5.999594 Total  11.999203
:CINT003 Core Integral Atom   3 Up   14.998603 Dn  14.998646 Total  29.997249

       DENSITY AT NUCLEUS
        JATOM        VALENCE       SEMI-CORE          CORE           TOTAL
:RTO001:   1        7.266613        0.000000    15301.699643    15308.966256
:RTO002:   2        7.266613        0.000000    15301.699643    15308.966256
:RTO003:   3       24.624599        0.000000   155310.635825   155335.260423

       HYPERFINE FIELDS FOR THOMSON RADIUS
:HFF001:          160.743           0.000        -306.142        -145.398 (KGAUSS)
:HFF002:          160.743           0.000        -306.142        -145.398 (KGAUSS)
:HFF003:           93.194           0.000        -461.255        -368.061 (KGAUSS)
     
       CHARGES OF NEW CHARGE DENSITY
:NTO   : INTERSTITIAL     UP =     2.638086 DN =     2.285994 TOT =     4.924080
:NPC   : PW Pseudocharge  UP =     6.354135 DN =     5.145890 TOT =    11.500025
:NTO001: CHARGE SPHERE  1 UP =    14.033441 DN =    11.064316 TOT =    25.097758
:NTO002: CHARGE SPHERE  2 UP =    14.033441 DN =    11.064316 TOT =    25.097758
:NTO003: CHARGE SPHERE  3 UP =    22.299599 DN =    21.137022 TOT =    43.436622

:NEC01: NUCLEAR AND ELECTRONIC CHARGE    142.00000   141.99284
     
       CHARGES OF OLD CHARGE DENSITY
:OTO   : INTERSTITIAL     UP =     2.694283 DN =     1.130949 TOT =     3.825232
:OPC   : PW Pseudocharge  UP =     8.734341 DN =     4.890919 TOT =    13.625260
:OTO001: CHARGE SPHERE  1 UP =    14.098712 DN =    11.154863 TOT =    25.253575
:OTO002: CHARGE SPHERE  2 UP =    14.098712 DN =    11.154863 TOT =    25.253575
:OTO003: CHARGE SPHERE  3 UP =    23.036754 DN =    20.797056 TOT =    43.833810

:NEC02: NUCLEAR AND ELECTRONIC CHARGE    142.00000   142.00000
     
       CONVERGENCE TEST
:DTO001: DIFFERENCE SPHERE  1 UP =  0.0506223 DN =  0.5920452 TOT =  0.6426675
:DTO002: DIFFERENCE SPHERE  2 UP =  0.0506223 DN =  0.5920452 TOT =  0.6426675
:DTO003: DIFFERENCE SPHERE  3 UP =  0.5159487 DN =  0.2156677 TOT =  0.7316163

:DIS  :  CHARGE DISTANCE       ( 0.5920452 for atom    2 spin 2)      1.3742838
 PW Mixed is           49
 
******************************************************
* MULTISECANT MIXING VER9 RELEASE 10.4.0              *
* Slow Mode, cautious                                *
* Fixed density scale                                *
* Regularization       1.000E-04                     *
* Step Trust Radius    0.75000                       *
* Trust Upper Limit    2.000E+00                     *
* Max Number of Memory Steps   12                    *
******************************************************
 
:PWTMP   1.1765E+02  4.5917E+02  3.5807E+02
:PLANE:  PW TOTAL      2.9651 DISTAN   9.84E-01  3.32E+01 %
:CHARG:  CLM/ATOM    212.0495 DISTAN   4.05E-01  1.91E-01 %
INFO: Reducing dbase  1.00000E-02 1.37428E+00 8.53025E-03
 
Step History
        DMIX         DMIXT        Red     Pred      Trust     Lambda    MagRel    MagAbs     Beta
  1   3.5000E-02   3.5000E-02 -1.00E+00  1.00E+00 -1.00E+01  1.00E+00  3.50E-02  3.50E-02  1.00E+00
  2   2.0372E-02   2.0372E-02 -1.00E+00  1.00E+00 -1.00E+01  1.00E+00  2.04E-02  3.92E-02  1.00E+00
:JACOBIANS    4.953E-01   4.462E-04
  
:TRUST:  Step 2.80E-02  Charge 7.50E-02 (e) CTO  2.50E-01 (e) PW  3.50E-01 (e)
:DIRM :  MEMORY  1/12 SCALE   1.000
:MIX  :   PRATT  REGULARIZATION:  1.00E-04 GREED: 0.02799  Expand 1.37  0.0280                
     
       CHARGES OF MIXED CHARGE DENSITY
:CTO   : INTERSTITIAL     UP =     2.694017 DN =     1.139561 TOT =     3.833578
:CPC   : PW Pseudocharge  UP =     7.427809 DN =     4.396804 TOT =    11.824613
:CTO001: CHARGE SPHERE  1 UP =    14.098194 DN =    11.154233 TOT =    25.252428
:CTO002: CHARGE SPHERE  2 UP =    14.098194 DN =    11.154233 TOT =    25.252428
:CTO003: CHARGE SPHERE  3 UP =    23.031405 DN =    20.799379 TOT =    43.830783

       SPIN MAGNETIC MOMENTS OF MIXED CHARGE DENSITY
:MMINT:  MAGNETIC MOMENT IN INTERSTITIAL  =    1.55446
:MMI001: MAGNETIC MOMENT IN SPHERE   1    =    2.94396
:MMI002: MAGNETIC MOMENT IN SPHERE   2    =    2.94396
:MMI003: MAGNETIC MOMENT IN SPHERE   3    =    2.23203
:MMTOT:  SPIN MAGNETIC MOMENT IN CELL     =   11.90643

:NEC03: NUCLEAR AND ELECTRONIC CHARGE    142.00000   142.00000

PW CHANGE     H    K    L      Current       Change    Residue
:PUP001:      0    0    0  2.82677004E-02 -3.650E-03 -6.768E-03
:PUP003:      0    0   -2 -1.17728800E-02  4.389E-03  1.039E-02
:PUP004:      0   -2   -2 -4.58045072E-03 -2.367E-02 -1.977E-02
:PUP006:     -2   -2   -2  3.90600967E-03  3.181E-03  1.419E-03
:PUP007:      0    0   -4 -1.33677397E-02 -5.983E-03  3.472E-04
:PUP009:      0   -2   -4  1.50126352E-02  4.630E-03 -4.849E-03
:PUP010:     -2   -2   -4 -3.63284419E-02 -1.088E-02  1.290E-02
:PUP013:      0   -4   -4 -8.69579727E-03 -2.034E-03  5.321E-03
:PUP015:     -2   -4   -4  3.69711878E-03  3.655E-04 -2.723E-03
:PUP016:      0    0   -6  9.26366283E-04  9.192E-05 -6.057E-04
:PUP017:      0   -2   -6 -5.41618557E-03 -8.554E-04  5.350E-03
:PUP019:     -2   -2   -6  4.91593007E-04 -2.617E-04 -7.208E-04
  
:PDN001:      0    0    0  1.54616673E-02 -1.356E-03  3.968E-03
:PDN003:      0    0   -2 -6.87369610E-03  3.069E-03  2.862E-03
:PDN004:      0   -2   -2  5.91373276E-03 -1.085E-02 -1.848E-02
:PDN006:     -2   -2   -2  2.58521238E-03  1.913E-03  1.540E-03
:PDN007:      0    0   -4 -7.56332363E-03 -3.075E-03 -1.094E-03
:PDN009:      0   -2   -4  1.10719276E-02  2.177E-03 -2.102E-03
:PDN010:     -2   -2   -4 -2.45642106E-02 -5.904E-03  1.177E-02
:PDN013:      0   -4   -4 -6.31516025E-03 -1.050E-03  4.750E-03
:PDN015:     -2   -4   -4  2.79842311E-03 -3.117E-04 -2.887E-03
:PDN016:      0    0   -6  7.11413356E-04 -7.488E-05 -3.101E-04
:PDN017:      0   -2   -6 -3.77709711E-03 -1.429E-04  2.874E-03
:PDN019:     -2   -2   -6  2.96117892E-04 -5.063E-04 -7.597E-04

:ENE  : *WARNING** TOTAL ENERGY IN Ry =       -24232.16730694

 Flat Integration
 New Mode for Coulomb Integral
 Consistent 3/8+Simpson combinations
 Extension of core to zero
 LDM version in phi
 Fifth-order quadrature in outwin


            ---------
:ITE003:  3. ITERATION
            ---------

:NATO :    3 INDEPENDENT AND    4 TOTAL ATOMS IN UNITCELL
       SUBSTANCE: FeRh                                                        

       LATTICE                      = F   
:POT  : POTENTIAL OPTION EX_PBE EC_PBE VX_PBE VC_PBE
:LAT  : LATTICE CONSTANTS= 11.27222 11.27222 11.27222    1.571    1.571    1.571
:VOL  : UNIT CELL VOLUME =     358.07036
       MODE OF CALCULATION IS       = RELA
       SPINPOLARIZED CALCULATION
:IFFT  : FFT-parameters:   90   90   90 Factor: 2.00


   CONVERGENCE PARAMETER FOR PSEUDOCHARGE: NCON=  9
   MAXIMAL VALUE OF RMT(JATOM)*ABSK(NKK) : RK  =29.05063


:VKCOUL :  VK-COUL convergence: 0.529E-07
       ATOMNUMBER=  1 Fe1        VCOUL-ZERO =  0.61907E+00
       ATOMNUMBER=  2 Fe2        VCOUL-ZERO =  0.61907E+00
       ATOMNUMBER=  3 Rh1        VCOUL-ZERO =  0.58995E+00
:FIT001: LUSE= 13 SIGMA OF V-XC FIT FOR ATOM  1  0.6978999E-02
:FIT001: LUSE= 13 SIGMA OF V-XC FIT FOR ATOM  1  0.1656324E-02
:FIT002: LUSE= 13 SIGMA OF V-XC FIT FOR ATOM  2  0.6978999E-02
:FIT002: LUSE= 13 SIGMA OF V-XC FIT FOR ATOM  2  0.1656324E-02
:FIT003: LUSE= 13 SIGMA OF V-XC FIT FOR ATOM  3  0.1400871E-02
:FIT003: LUSE= 13 SIGMA OF V-XC FIT FOR ATOM  3  0.3492550E-03
:DEN  : DENSITY INTEGRAL  =         -9881.53577668   (Ry)
       ELS_POTENTIAL_AT Z=0 and Z=0.5:  -0.20340  -0.20340
       ELS_POTENTIAL_AT Y=0 and Y=0.5:   0.00000   0.00000
:VZERO:v0,v0c,v0x  -0.77321  -0.20340  -0.56981 v5,v5c,v5x  -0.77321  -0.20340  -0.56981
:VZERY:v0,v0c,v0x  -0.82911   0.00000  -0.82911 v5,v5c,v5x  -0.82911   0.00000  -0.82911
:VZERX:v0,v0c,v0x  -0.82911   0.00000  -0.82911 v5,v5c,v5x  -0.82911   0.00000  -0.82911
:LMAX-WF:   10   Non-Spherical LMAX:   4

          ATOMIC SPHERE DEPENDENT PARAMETERS FOR ATOM  Fe1       
:e__0001: OVERALL ENERGY PARAMETER IS    0.5643
          OVERALL BASIS SET ON ATOM IS LAPW
:E1_0001: E( 1)=    0.5643
             APW+lo
:E1_0001: E( 1)=   -3.2194   E(BOTTOM)=   -3.252   E(TOP)=   -3.187  1  2   170
             LOCAL ORBITAL
:E2_0001: E( 2)=    0.5636   E(BOTTOM)=    0.321   E(TOP)=    0.806  0  1   129
             APW+lo
:E0_0001: E( 0)=    0.5643
             APW+lo

          ATOMIC SPHERE DEPENDENT PARAMETERS FOR ATOM  Fe2       
:e__0002: OVERALL ENERGY PARAMETER IS    0.5643
          OVERALL BASIS SET ON ATOM IS LAPW
:E1_0002: E( 1)=    0.5643
             APW+lo
:E1_0002: E( 1)=   -3.2194   E(BOTTOM)=   -3.252   E(TOP)=   -3.187  1  2   170
             LOCAL ORBITAL
:E2_0002: E( 2)=    0.5636   E(BOTTOM)=    0.321   E(TOP)=    0.806  0  1   129
             APW+lo
:E0_0002: E( 0)=    0.5643
             APW+lo

          ATOMIC SPHERE DEPENDENT PARAMETERS FOR ATOM  Rh1       
:e__0003: OVERALL ENERGY PARAMETER IS    0.5643
          OVERALL BASIS SET ON ATOM IS LAPW
:E1_0003: E( 1)=    0.5643
             APW+lo
:E1_0003: E( 1)=   -2.6784   E(BOTTOM)=   -2.779   E(TOP)=   -2.578  2  3   164
             LOCAL ORBITAL
:E2_0003: E( 2)=    0.5724   E(BOTTOM)=    0.116   E(TOP)=    1.029  1  2   141
             APW+lo
:E0_0003: E( 0)=    0.5643
             APW+lo

       K=   0.00000   0.00000   0.00000            1
:RKM  : MATRIX SIZE   185LOs:  48  RKM= 6.64  WEIGHT= 1.00  PGR:    
       EIGENVALUES ARE:
:EIG00001:      -3.2133990   -3.2133990   -3.2133990   -3.2115912   -3.2115912
:EIG00006:      -3.2115912   -2.6613709   -2.6613709   -2.6613709   -2.6534439
:EIG00011:      -2.6534439   -2.6534439    0.0259681    0.2931199    0.2931199
:EIG00016:       0.3659295    0.3659295    0.3659295    0.4893980    0.4893980
:EIG00021:       0.4893980    0.5245064    0.5245064    0.5245064    0.6637827
:EIG00026:       0.6637827    0.6758241    0.6758241    0.7266428    0.7266428
:EIG00031:       0.7594573    0.7594573    0.7594573    1.2130312    1.2763404
:EIG00036:       1.2763404    1.2763404    1.2855408    1.2855408    1.2855408
:EIG00041:       1.3992549    1.3992549    1.3992549    1.4539514    1.9455299
:EIG00046:       1.9455299    2.0306080    2.1061210    2.1061210    2.1061210
 
       ********************************************************

:KPT   :      NUMBER OF K-POINTS:    72
:LMAX-WF:   10   Non-Spherical LMAX:   4

          ATOMIC SPHERE DEPENDENT PARAMETERS FOR ATOM  Fe1       
:e__0001: OVERALL ENERGY PARAMETER IS    0.5643
          OVERALL BASIS SET ON ATOM IS LAPW
:E1_0001: E( 1)=    0.5643
             APW+lo
:E1_0001: E( 1)=   -3.0292   E(BOTTOM)=   -3.063   E(TOP)=   -2.995  1  2   196
             LOCAL ORBITAL
:E2_0001: E( 2)=    0.7448   E(BOTTOM)=    0.493   E(TOP)=    0.997  0  1   126
             APW+lo
:E0_0001: E( 0)=    0.5643
             APW+lo

          ATOMIC SPHERE DEPENDENT PARAMETERS FOR ATOM  Fe2       
:e__0002: OVERALL ENERGY PARAMETER IS    0.5643
          OVERALL BASIS SET ON ATOM IS LAPW
:E1_0002: E( 1)=    0.5643
             APW+lo
:E1_0002: E( 1)=   -3.0292   E(BOTTOM)=   -3.063   E(TOP)=   -2.995  1  2   196
             LOCAL ORBITAL
:E2_0002: E( 2)=    0.7448   E(BOTTOM)=    0.493   E(TOP)=    0.997  0  1   127
             APW+lo
:E0_0002: E( 0)=    0.5643
             APW+lo

          ATOMIC SPHERE DEPENDENT PARAMETERS FOR ATOM  Rh1       
:e__0003: OVERALL ENERGY PARAMETER IS    0.5643
          OVERALL BASIS SET ON ATOM IS LAPW
:E1_0003: E( 1)=    0.5643
             APW+lo
:E1_0003: E( 1)=   -2.5782   E(BOTTOM)=   -2.677   E(TOP)=   -2.480  2  3   179
             LOCAL ORBITAL
:E2_0003: E( 2)=    0.5643   E(BOTTOM)=    0.231   E(TOP)= -200.000  1 -1    87
             APW+lo
:E0_0003: E( 0)=    0.5643
             APW+lo

       K=   0.00000   0.00000   0.00000            1
:RKM  : MATRIX SIZE   185LOs:  48  RKM= 6.64  WEIGHT= 1.00  PGR:    
       EIGENVALUES ARE:
:EIG00001:      -3.0229023   -3.0229023   -3.0229023   -3.0210422   -3.0210422
:EIG00006:      -3.0210422   -2.5607639   -2.5607639   -2.5607639   -2.5532100
:EIG00011:      -2.5532100   -2.5532100    0.1832606    0.4377444    0.4377444
:EIG00016:       0.5003765    0.5003765    0.5003765    0.6646080    0.6646080
:EIG00021:       0.6646080    0.6695769    0.6695769    0.6695769    0.8260154
:EIG00026:       0.8260154    0.8390637    0.8390637    0.8621762    0.8621762
:EIG00031:       0.9142840    0.9142840    0.9142840    1.3696036    1.4430823
:EIG00036:       1.4430823    1.4430823    1.4449815    1.4449815    1.4449815
:EIG00041:       1.5440247    1.5440247    1.5440247    1.5885715    2.1187471
:EIG00046:       2.1187471    2.1721986
 
       ********************************************************

:KPT   :      NUMBER OF K-POINTS:    72
:GAP (global)   :    0.0    Ry =     0.0   eV (metal)
:GAP (this spin):    0.0    Ry =     0.0   eV (metal)
         Bandranges (emin - emax) and occupancy:
:BAN00025:  25    0.581666    0.664624  1.00000000
:BAN00026:  26    0.598048    0.671396  1.00000000
:BAN00027:  27    0.609922    0.675824  1.00000000
:BAN00028:  28    0.627681    0.675824  1.00000000
:BAN00029:  29    0.653727    0.726643  1.00000000
:BAN00030:  30    0.666713    0.726643  1.00000000
:BAN00031:  31    0.671302    0.759457  1.00000000
:BAN00032:  32    0.692850    0.759457  1.00000000
:BAN00033:  33    0.701551    0.778192  1.00108012
:BAN00034:  34    0.732369    1.213031  0.30751858
:BAN00035:  35    0.780295    1.276340  0.00020828
:BAN00036:  36    0.797562    1.276340  0.00000000
:BAN00037:  37    1.229554    1.460533  0.00000000
:BAN00038:  38    1.229554    1.546791  0.00000000
:BAN00039:  39    1.277424    1.754868  0.00000000
:BAN00040:  40    1.285541    1.755302  0.00000000
        Energy to separate low and high energystates:   -0.02403


:NOE  : NUMBER OF ELECTRONS          =   58.000

:FER  : F E R M I - ENERGY(TETRAH.M.)=   0.7836456107
:GMA  : POTENTIAL AND CHARGE CUT-OFF  12.00 Ry**.5

:POS001: ATOM    1 X,Y,Z = 0.00000 0.00000 0.00000  MULT= 1  ZZ= 26.000  Fe1       

       LMMAX  5
       LM=   0 0  4 0  4 4  6 0  6 4

:CHA001: TOTAL VALENCE CHARGE INSIDE SPHERE   1 =   8.0355    (RMT=  2.4300 )
:PCS001: PARTIAL CHARGES SPHERE =  1 S,P,D,F,      D-EG,D-T2G 
:QTL001: 0.2558 3.2942 4.4424 0.0315 0.0000 0.0000 0.0000 1.8444 2.5979 0.0000 0.0000 0.0000
        Q-s-low E-s-low   Q-p-low E-p-low   Q-d-low E-d-low   Q-f-low E-f-low
:EPL001:  0.0006 -2.6668    2.9951 -3.2122    0.0014 -2.6624    0.0006 -2.6630
        Q-s-hi  E-s-hi    Q-p-hi  E-p-hi    Q-d-hi  E-d-hi    Q-f-hi  E-f-hi 
:EPH001:  0.2553  0.2973    0.2992  0.4542    4.4410  0.5863    0.0309  0.5433

:POS002: ATOM    2 X,Y,Z = 0.50000 0.00000 0.00000  MULT= 1  ZZ= 26.000  Fe2       

       LMMAX  5
       LM=   0 0  4 0  4 4  6 0  6 4

:CHA002: TOTAL VALENCE CHARGE INSIDE SPHERE   2 =   8.0355    (RMT=  2.4300 )
:PCS002: PARTIAL CHARGES SPHERE =  2 S,P,D,F,      D-EG,D-T2G 
:QTL002: 0.2558 3.2942 4.4424 0.0315 0.0000 0.0000 0.0000 1.8444 2.5979 0.0000 0.0000 0.0000
        Q-s-low E-s-low   Q-p-low E-p-low   Q-d-low E-d-low   Q-f-low E-f-low
:EPL002:  0.0006 -2.6668    2.9951 -3.2122    0.0014 -2.6624    0.0006 -2.6630
        Q-s-hi  E-s-hi    Q-p-hi  E-p-hi    Q-d-hi  E-d-hi    Q-f-hi  E-f-hi 
:EPH002:  0.2553  0.2973    0.2992  0.4542    4.4410  0.5863    0.0309  0.5433

:POS003: ATOM    3 X,Y,Z = 0.25000 0.25000 0.25000  MULT= 2  ZZ= 45.000  Rh1       

       LMMAX  6
       LM=   0 0  4 0  4 4  6 0  6 4 -3 2

:CHA003: TOTAL VALENCE CHARGE INSIDE SPHERE   3 =   7.3024    (RMT=  2.4300 )
:PCS003: PARTIAL CHARGES SPHERE =  3 S,P,D,F,      D-EG,D-T2G 
:QTL003: 0.1909 3.1904 3.8859 0.0273 0.0000 0.0000 0.0000 1.5610 2.3248 0.0000 0.0000 0.0000
        Q-s-low E-s-low   Q-p-low E-p-low   Q-d-low E-d-low   Q-f-low E-f-low
:EPL003:  0.0002 -3.1231    2.9785 -2.6580    0.0004 -3.1365    0.0002 -3.1347
        Q-s-hi  E-s-hi    Q-p-hi  E-p-hi    Q-d-hi  E-d-hi    Q-f-hi  E-f-hi 
:EPH003:  0.1907  0.2987    0.2120  0.4701    3.8854  0.5348    0.0271  0.5594

:CHA  : TOTAL VALENCE CHARGE INSIDE UNIT CELL =      33.308807

:SUM  : SUM OF EIGENVALUES =         -23.948145387

:GAP (global)   :    0.0    Ry =     0.0   eV (metal)
:GAP (this spin):    0.0    Ry =     0.0   eV (metal)
         Bandranges (emin - emax) and occupancy:
:BAN00017:  17    0.500377    0.601420  1.00000000
:BAN00018:  18    0.500377    0.601420  1.00000000
:BAN00019:  19    0.542786    0.664608  1.00000000
:BAN00020:  20    0.589893    0.668288  1.00000000
:BAN00021:  21    0.594048    0.668288  1.00000000
:BAN00022:  22    0.594048    0.724179  1.00000000
:BAN00023:  23    0.596616    0.756087  1.00000000
:BAN00024:  24    0.596616    0.771038  1.00000000
:BAN00025:  25    0.741915    0.826491  0.51346421
:BAN00026:  26    0.769738    0.831570  0.17744930
:BAN00027:  27    0.782451    0.839064  0.00027952
:BAN00028:  28    0.790409    0.839064  0.00000000
:BAN00029:  29    0.820190    0.887460  0.00000000
:BAN00030:  30    0.827014    0.887460  0.00000000
:BAN00031:  31    0.829598    0.914284  0.00000000
:BAN00032:  32    0.854428    0.914284  0.00000000
        Energy to separate low and high energystates:    0.13326


:NOE  : NUMBER OF ELECTRONS          =   58.000

:FER  : F E R M I - ENERGY(TETRAH.M.)=   0.7836456107
:GMA  : POTENTIAL AND CHARGE CUT-OFF  12.00 Ry**.5

:POS001: ATOM    1 X,Y,Z = 0.00000 0.00000 0.00000  MULT= 1  ZZ= 26.000  Fe1       

       LMMAX  5
       LM=   0 0  4 0  4 4  6 0  6 4

:CHA001: TOTAL VALENCE CHARGE INSIDE SPHERE   1 =   5.0673    (RMT=  2.4300 )
:PCS001: PARTIAL CHARGES SPHERE =  1 S,P,D,F,      D-EG,D-T2G 
:QTL001: 0.2326 3.2474 1.5575 0.0224 0.0000 0.0000 0.0000 0.4889 1.0685 0.0000 0.0000 0.0000
        Q-s-low E-s-low   Q-p-low E-p-low   Q-d-low E-d-low   Q-f-low E-f-low
:EPL001:  0.0005 -2.5660    2.9948 -3.0217    0.0013 -2.5617    0.0005 -2.5621
        Q-s-hi  E-s-hi    Q-p-hi  E-p-hi    Q-d-hi  E-d-hi    Q-f-hi  E-f-hi 
:EPH001:  0.2321  0.4162    0.2526  0.5654    1.5561  0.6254    0.0219  0.6163

:POS002: ATOM    2 X,Y,Z = 0.50000 0.00000 0.00000  MULT= 1  ZZ= 26.000  Fe2       

       LMMAX  5
       LM=   0 0  4 0  4 4  6 0  6 4

:CHA002: TOTAL VALENCE CHARGE INSIDE SPHERE   2 =   5.0673    (RMT=  2.4300 )
:PCS002: PARTIAL CHARGES SPHERE =  2 S,P,D,F,      D-EG,D-T2G 
:QTL002: 0.2326 3.2474 1.5575 0.0224 0.0000 0.0000 0.0000 0.4889 1.0685 0.0000 0.0000 0.0000
        Q-s-low E-s-low   Q-p-low E-p-low   Q-d-low E-d-low   Q-f-low E-f-low
:EPL002:  0.0005 -2.5660    2.9948 -3.0217    0.0013 -2.5617    0.0005 -2.5621
        Q-s-hi  E-s-hi    Q-p-hi  E-p-hi    Q-d-hi  E-d-hi    Q-f-hi  E-f-hi 
:EPH002:  0.2321  0.4162    0.2526  0.5654    1.5561  0.6254    0.0219  0.6163

:POS003: ATOM    3 X,Y,Z = 0.25000 0.25000 0.25000  MULT= 2  ZZ= 45.000  Rh1       

       LMMAX  6
       LM=   0 0  4 0  4 4  6 0  6 4 -3 2

:CHA003: TOTAL VALENCE CHARGE INSIDE SPHERE   3 =   6.1419    (RMT=  2.4300 )
:PCS003: PARTIAL CHARGES SPHERE =  3 S,P,D,F,      D-EG,D-T2G 
:QTL003: 0.1849 3.1597 2.7794 0.0146 0.0000 0.0000 0.0000 0.9133 1.8661 0.0000 0.0000 0.0000
        Q-s-low E-s-low   Q-p-low E-p-low   Q-d-low E-d-low   Q-f-low E-f-low
:EPL003:  0.0002 -2.9560    2.9794 -2.5576    0.0004 -2.9649    0.0002 -2.9616
        Q-s-hi  E-s-hi    Q-p-hi  E-p-hi    Q-d-hi  E-d-hi    Q-f-hi  E-f-hi 
:EPH003:  0.1847  0.4356    0.1803  0.5909    2.7790  0.5783    0.0145  0.6357

:CHA  : TOTAL VALENCE CHARGE INSIDE UNIT CELL =      24.691193

:SUM  : SUM OF EIGENVALUES =         -26.215388777


        1.ATOM      Fe1                   5 CORE STATES
:1S 001: 1S                -512.982102520 Ry
:2S 001: 2S                 -58.930336563 Ry
:2PP001: 2P*                -50.623574681 Ry
:2P 001: 2P                 -49.706943751 Ry
:3S 001: 3S                  -5.700903168 Ry

        2.ATOM      Fe2                   5 CORE STATES
:1S 002: 1S                -512.982102531 Ry
:2S 002: 2S                 -58.930336573 Ry
:2PP002: 2P*                -50.623574691 Ry
:2P 002: 2P                 -49.706943761 Ry
:3S 002: 3S                  -5.700903174 Ry

        3.ATOM      Rh1                  10 CORE STATES
:1S 003: 1S               -1691.282316864 Ry
:2S 003: 2S                -244.183623320 Ry
:2PP003: 2P*               -225.990707715 Ry
:2P 003: 2P                -215.361972866 Ry
:3S 003: 3S                 -42.718116077 Ry
:3PP003: 3P*                -35.600859595 Ry
:3P 003: 3P                 -33.772230242 Ry
:3DD003: 3D*                -21.177235347 Ry
:3D 003: 3D                 -20.816646270 Ry
:4S 003: 4S                  -5.003605710 Ry

        1.ATOM      Fe1                   5 CORE STATES
:1S 001: 1S                -512.981320118 Ry
:2S 001: 2S                 -58.847919197 Ry
:2PP001: 2P*                -50.562133299 Ry
:2P 001: 2P                 -49.643715271 Ry
:3S 001: 3S                  -5.507645896 Ry

        2.ATOM      Fe2                   5 CORE STATES
:1S 002: 1S                -512.981320129 Ry
:2S 002: 2S                 -58.847919207 Ry
:2PP002: 2P*                -50.562133308 Ry
:2P 002: 2P                 -49.643715281 Ry
:3S 002: 3S                  -5.507645902 Ry

        3.ATOM      Rh1                  10 CORE STATES
:1S 003: 1S               -1691.281206591 Ry
:2S 003: 2S                -244.162983783 Ry
:2PP003: 2P*               -225.975689304 Ry
:2P 003: 2P                -215.345908526 Ry
:3S 003: 3S                 -42.706484788 Ry
:3PP003: 3P*                -35.587435151 Ry
:3P 003: 3P                 -33.759227921 Ry
:3DD003: 3D*                -21.157542813 Ry
:3D 003: 3D                 -20.797013077 Ry
:4S 003: 4S                  -4.910067825 Ry
:CINT001 Core Integral Atom   1 Up    5.999610 Dn   5.999595 Total  11.999205
:CINT002 Core Integral Atom   2 Up    5.999610 Dn   5.999595 Total  11.999205
:CINT003 Core Integral Atom   3 Up   14.998606 Dn  14.998648 Total  29.997254

       DENSITY AT NUCLEUS
        JATOM        VALENCE       SEMI-CORE          CORE           TOTAL
:RTO001:   1        7.245671        0.000000    15301.749483    15308.995154
:RTO002:   2        7.245671        0.000000    15301.749484    15308.995154
:RTO003:   3       24.557572        0.000000   155310.800718   155335.358290

       HYPERFINE FIELDS FOR THOMSON RADIUS
:HFF001:          160.905           0.000        -306.500        -145.595 (KGAUSS)
:HFF002:          160.905           0.000        -306.500        -145.595 (KGAUSS)
:HFF003:           90.081           0.000        -460.087        -370.005 (KGAUSS)
     
       CHARGES OF NEW CHARGE DENSITY
:NTO   : INTERSTITIAL     UP =     2.632930 DN =     2.272770 TOT =     4.905700
:NPC   : PW Pseudocharge  UP =     6.344770 DN =     5.135437 TOT =    11.480207
:NTO001: CHARGE SPHERE  1 UP =    14.035154 DN =    11.066885 TOT =    25.102040
:NTO002: CHARGE SPHERE  2 UP =    14.035154 DN =    11.066885 TOT =    25.102039
:NTO003: CHARGE SPHERE  3 UP =    22.300982 DN =    21.140556 TOT =    43.441538

:NEC01: NUCLEAR AND ELECTRONIC CHARGE    142.00000   141.99285
     
       CHARGES OF OLD CHARGE DENSITY
:OTO   : INTERSTITIAL     UP =     2.694017 DN =     1.139561 TOT =     3.833578
:OPC   : PW Pseudocharge  UP =     7.427809 DN =     4.396804 TOT =    11.824613
:OTO001: CHARGE SPHERE  1 UP =    14.098194 DN =    11.154233 TOT =    25.252428
:OTO002: CHARGE SPHERE  2 UP =    14.098194 DN =    11.154233 TOT =    25.252428
:OTO003: CHARGE SPHERE  3 UP =    23.031405 DN =    20.799379 TOT =    43.830783

:NEC02: NUCLEAR AND ELECTRONIC CHARGE    142.00000   142.00000
     
       CONVERGENCE TEST
:DTO001: DIFFERENCE SPHERE  1 UP =  0.0496888 DN =  0.5778977 TOT =  0.6275865
:DTO002: DIFFERENCE SPHERE  2 UP =  0.0496888 DN =  0.5778977 TOT =  0.6275865
:DTO003: DIFFERENCE SPHERE  3 UP =  0.5083999 DN =  0.2106645 TOT =  0.7190644

:DIS  :  CHARGE DISTANCE       ( 0.5778977 for atom    2 spin 2)      1.3466509
 PW Mixed is           49
 
******************************************************
* MULTISECANT MIXING VER9 RELEASE 10.4.0              *
* Slow Mode, cautious                                *
* Fixed density scale                                *
* Regularization       1.000E-04                     *
* Step Trust Radius    0.75000                       *
* Trust Upper Limit    2.000E+00                     *
* Max Number of Memory Steps   12                    *
******************************************************
 
:PWTMP   1.1765E+02  4.5917E+02  3.5807E+02
:PLANE:  PW TOTAL      2.6913 DISTAN   8.04E-01  2.99E+01 %
:CHARG:  CLM/ATOM    212.0492 DISTAN   3.98E-01  1.88E-01 %
INFO: Reducing dbase  1.00000E-02 1.34665E+00 8.61733E-03
 
Step History
        DMIX         DMIXT        Red     Pred      Trust     Lambda    MagRel    MagAbs     Beta
  1   3.5000E-02   3.5000E-02 -1.00E+00  1.00E+00 -1.00E+01  1.00E+00  3.50E-02  3.50E-02  1.00E+00
  2   2.0372E-02   2.0372E-02  6.81E-01  1.00E+00 -1.00E+01  1.00E+00  2.04E-02  3.92E-02  1.00E+00
  3   2.7994E-02   2.7994E-02 -1.00E+00  1.00E+00 -1.00E+01  1.00E+00  2.80E-02  3.67E-02  1.00E+00
:JACOBIANS    7.446E-01   4.340E-04
  
:NORMS:  1/Froebius, Min, Max, Used   0.9968E+00  0.4977E+00  0.9969E+00  0.9969E+00
:INFO :  Number of Memory Steps    2 Skipping    0
:INFO :  SLambda=    0.1065529470  Max    0.1065529470
:PREDicted Charge, CTotal, PW Trust    3.002E-03   8.279E-03   4.259E-01
:PREDicted DMix, Beta, BLim   6.4576E-02  9.6019E-01  9.2371E-01

Eigenvalues, unscaled except for SY+YY
   #     SY Real        SY Imag          SS             YY         SY+YY Real      SY+YY Imag
   1  -1.376677E-14   0.000000E+00   1.987154E+00   1.999497E+00   5.025514E-04   0.000000E+00
   2   1.988769E+00   0.000000E+00   0.000000E+00   5.025130E-04   2.211407E+00   0.000000E+00
 
:INFO :  Singular value  2.211E+00 Weight  1.000E+00 Projection  6.293E-03
:INFO :  Singular value  5.026E-04 Weight  8.633E-01 Projection -7.604E+00
:RANK :  ACTIVE   1.86/2  =  93.17 % ; YY RANK   1.86/2  =  93.17 %
 
:DLIM :  Beta Active  9.701E-01
:BLIM :  VZERO Control Off
:TRUST:  Step 1.67E-01  Charge 7.50E-02 (e) CTO  2.50E-01 (e) PW  3.85E-01 (e)
:DIRM :  MEMORY  2/12 SCALE   1.000 RED  0.96 PRED  1.00 NEXT  0.99 BETA  0.97
:TRAVE:  Charge 1.62E-02 (e) CTO  4.91E-02 (e) PW  3.36E-02 (e)
:DIRP :  |MSR1|= 2.404E-02 |PRATT|= 4.022E-01 ANGLE=  29.3 DEGREES
:DIRQ :  |MSR1|= 5.415E-02 |PRATT|= 1.194E+00 ANGLE=   8.2 DEGREES
:DIRT :  |MSR1|= 5.924E-02 |PRATT|= 1.260E+00 ANGLE=  14.0 DEGREES
:MIX  :   MSD1   REGULARIZATION:  2.00E-04 GREED: 0.04621  Newton 1.00  0.0470                
     
       CHARGES OF MIXED CHARGE DENSITY
:CTO   : INTERSTITIAL     UP =     2.691327 DN =     1.191361 TOT =     3.882688
:CPC   : PW Pseudocharge  UP =     7.419680 DN =     4.447155 TOT =    11.866835
:CTO001: CHARGE SPHERE  1 UP =    14.095613 DN =    11.148453 TOT =    25.244065
:CTO002: CHARGE SPHERE  2 UP =    14.095613 DN =    11.148453 TOT =    25.244065
:CTO003: CHARGE SPHERE  3 UP =    22.998464 DN =    20.816127 TOT =    43.814591

       SPIN MAGNETIC MOMENTS OF MIXED CHARGE DENSITY
:MMINT:  MAGNETIC MOMENT IN INTERSTITIAL  =    1.49997
:MMI001: MAGNETIC MOMENT IN SPHERE   1    =    2.94716
:MMI002: MAGNETIC MOMENT IN SPHERE   2    =    2.94716
:MMI003: MAGNETIC MOMENT IN SPHERE   3    =    2.18234
:MMTOT:  SPIN MAGNETIC MOMENT IN CELL     =   11.75896

:NEC03: NUCLEAR AND ELECTRONIC CHARGE    142.00000   142.00000

PW CHANGE     H    K    L      Current       Change    Residue
:PUP001:      0    0    0  2.82374879E-02 -3.021E-05 -3.159E-03
:PUP003:      0    0   -2 -1.16357631E-02  1.371E-04  5.992E-03
:PUP004:      0   -2   -2 -3.63904557E-03  9.414E-04  3.912E-03
:PUP005:     -1   -1   -3 -1.52640004E-12 -1.527E-12 -3.092E-11
:PUP006:     -2   -2   -2  3.71964903E-03 -1.864E-04 -1.775E-03
:PUP007:      0    0   -4 -1.28800931E-02  4.876E-04  6.330E-03
:PUP009:      0   -2   -4  1.44233386E-02 -5.893E-04 -9.482E-03
:PUP010:     -2   -2   -4 -3.48756435E-02  1.453E-03  2.378E-02
:PUP013:      0   -4   -4 -8.29029388E-03  4.055E-04  7.356E-03
:PUP015:     -2   -4   -4  3.54255524E-03 -1.546E-04 -3.088E-03
:PUP016:      0    0   -6  8.91208575E-04 -3.516E-05 -6.976E-04
:PUP017:      0   -2   -6 -5.10288477E-03  3.133E-04  6.203E-03
  
:PDN001:      0    0    0  1.57469487E-02  2.853E-04  5.258E-03
:PDN002:     -1   -1   -1 -3.63047977E-12 -3.631E-12 -1.167E-10
:PDN003:      0    0   -2 -6.98020521E-03 -1.065E-04 -2.231E-04
:PDN004:      0   -2   -2  5.92680823E-03  1.308E-05 -7.433E-03
:PDN005:     -1   -1   -3  2.09690280E-12  2.097E-12  7.415E-11
:PDN006:     -2   -2   -2  2.50468385E-03 -8.053E-05 -3.321E-04
:PDN007:      0    0   -4 -7.37158715E-03  1.917E-04  2.013E-03
:PDN008:     -1   -3   -3  2.54280552E-12  2.543E-12  5.436E-11
:PDN009:      0   -2   -4  1.08011086E-02 -2.708E-04 -4.240E-03
:PDN010:     -2   -2   -4 -2.35620933E-02  1.002E-03  1.767E-02
:PDN013:      0   -4   -4 -6.01394293E-03  3.012E-04  5.791E-03
:PDN015:     -2   -4   -4  2.68850861E-03 -1.099E-04 -2.565E-03

:ENE  : ********** TOTAL ENERGY IN Ry =       -24232.15843832

 Flat Integration
 New Mode for Coulomb Integral
 Consistent 3/8+Simpson combinations
 Extension of core to zero
 LDM version in phi
 Fifth-order quadrature in outwin


            ---------
:ITE004:  4. ITERATION
            ---------

:NATO :    3 INDEPENDENT AND    4 TOTAL ATOMS IN UNITCELL
       SUBSTANCE: FeRh                                                        

       LATTICE                      = F   
:POT  : POTENTIAL OPTION EX_PBE EC_PBE VX_PBE VC_PBE
:LAT  : LATTICE CONSTANTS= 11.27222 11.27222 11.27222    1.571    1.571    1.571
:VOL  : UNIT CELL VOLUME =     358.07036
       MODE OF CALCULATION IS       = RELA
       SPINPOLARIZED CALCULATION
:IFFT  : FFT-parameters:   90   90   90 Factor: 2.00


   CONVERGENCE PARAMETER FOR PSEUDOCHARGE: NCON=  9
   MAXIMAL VALUE OF RMT(JATOM)*ABSK(NKK) : RK  =29.05063


:VKCOUL :  VK-COUL convergence: 0.497E-07
       ATOMNUMBER=  1 Fe1        VCOUL-ZERO =  0.62176E+00
       ATOMNUMBER=  2 Fe2        VCOUL-ZERO =  0.62176E+00
       ATOMNUMBER=  3 Rh1        VCOUL-ZERO =  0.59187E+00
:FIT001: LUSE= 13 SIGMA OF V-XC FIT FOR ATOM  1  0.6453032E-02
:FIT001: LUSE= 13 SIGMA OF V-XC FIT FOR ATOM  1  0.7195637E-03
:FIT002: LUSE= 13 SIGMA OF V-XC FIT FOR ATOM  2  0.6453032E-02
:FIT002: LUSE= 13 SIGMA OF V-XC FIT FOR ATOM  2  0.7195637E-03
:FIT003: LUSE= 13 SIGMA OF V-XC FIT FOR ATOM  3  0.1171283E-02
:FIT003: LUSE= 13 SIGMA OF V-XC FIT FOR ATOM  3  0.4464629E-03
:DEN  : DENSITY INTEGRAL  =         -9878.74008366   (Ry)
       ELS_POTENTIAL_AT Z=0 and Z=0.5:  -0.20527  -0.20527
       ELS_POTENTIAL_AT Y=0 and Y=0.5:   0.00000   0.00000
:VZERO:v0,v0c,v0x  -0.78343  -0.20527  -0.57816 v5,v5c,v5x  -0.78343  -0.20527  -0.57816
:VZERY:v0,v0c,v0x  -0.83014   0.00000  -0.83014 v5,v5c,v5x  -0.83014   0.00000  -0.83014
:VZERX:v0,v0c,v0x  -0.83014   0.00000  -0.83014 v5,v5c,v5x  -0.83014   0.00000  -0.83014
:LMAX-WF:   10   Non-Spherical LMAX:   4

          ATOMIC SPHERE DEPENDENT PARAMETERS FOR ATOM  Fe1       
:e__0001: OVERALL ENERGY PARAMETER IS    0.5772
          OVERALL BASIS SET ON ATOM IS LAPW
:E1_0001: E( 1)=    0.5772
             APW+lo
:E1_0001: E( 1)=   -3.2406   E(BOTTOM)=   -3.273   E(TOP)=   -3.208  1  2   171
             LOCAL ORBITAL
:E2_0001: E( 2)=    0.5472   E(BOTTOM)=    0.309   E(TOP)=    0.786  0  1   124
             APW+lo
:E0_0001: E( 0)=    0.5772
             APW+lo

          ATOMIC SPHERE DEPENDENT PARAMETERS FOR ATOM  Fe2       
:e__0002: OVERALL ENERGY PARAMETER IS    0.5772
          OVERALL BASIS SET ON ATOM IS LAPW
:E1_0002: E( 1)=    0.5772
             APW+lo
:E1_0002: E( 1)=   -3.2406   E(BOTTOM)=   -3.273   E(TOP)=   -3.208  1  2   170
             LOCAL ORBITAL
:E2_0002: E( 2)=    0.5472   E(BOTTOM)=    0.309   E(TOP)=    0.786  0  1   125
             APW+lo
:E0_0002: E( 0)=    0.5772
             APW+lo

          ATOMIC SPHERE DEPENDENT PARAMETERS FOR ATOM  Rh1       
:e__0003: OVERALL ENERGY PARAMETER IS    0.5772
          OVERALL BASIS SET ON ATOM IS LAPW
:E1_0003: E( 1)=    0.5772
             APW+lo
:E1_0003: E( 1)=   -2.6902   E(BOTTOM)=   -2.790   E(TOP)=   -2.591  2  3   160
             LOCAL ORBITAL
:E2_0003: E( 2)=    0.5643   E(BOTTOM)=    0.110   E(TOP)=    1.019  1  2   139
             APW+lo
:E0_0003: E( 0)=    0.5772
             APW+lo

       K=   0.00000   0.00000   0.00000            1
:RKM  : MATRIX SIZE   185LOs:  48  RKM= 6.64  WEIGHT= 1.00  PGR:    
       EIGENVALUES ARE:
:EIG00001:      -3.2346792   -3.2346792   -3.2346792   -3.2329068   -3.2329068
:EIG00006:      -3.2329068   -2.6732738   -2.6732738   -2.6732738   -2.6654468
:EIG00011:      -2.6654468   -2.6654468    0.0257645    0.2866473    0.2866473
:EIG00016:       0.3616303    0.3616303    0.3616303    0.4776828    0.4776828
:EIG00021:       0.4776828    0.5131728    0.5131728    0.5131728    0.6493402
:EIG00026:       0.6493402    0.6574441    0.6574441    0.7176546    0.7176546
:EIG00031:       0.7456287    0.7456287    0.7456287    1.2101684    1.2694674
:EIG00036:       1.2694674    1.2694674    1.2843795    1.2843795    1.2843795
:EIG00041:       1.3943402    1.3943402    1.3943402    1.4523588    1.9393034
:EIG00046:       1.9393034    2.0273519    2.1071338    2.1071338    2.1071338
 
       ********************************************************

:KPT   :      NUMBER OF K-POINTS:    72
:LMAX-WF:   10   Non-Spherical LMAX:   4

          ATOMIC SPHERE DEPENDENT PARAMETERS FOR ATOM  Fe1       
:e__0001: OVERALL ENERGY PARAMETER IS    0.5772
          OVERALL BASIS SET ON ATOM IS LAPW
:E1_0001: E( 1)=    0.5772
             APW+lo
:E1_0001: E( 1)=   -3.0484   E(BOTTOM)=   -3.082   E(TOP)=   -3.015  1  2   191
             LOCAL ORBITAL
:E2_0001: E( 2)=    0.7298   E(BOTTOM)=    0.481   E(TOP)=    0.979  0  1   120
             APW+lo
:E0_0001: E( 0)=    0.5772
             APW+lo

          ATOMIC SPHERE DEPENDENT PARAMETERS FOR ATOM  Fe2       
:e__0002: OVERALL ENERGY PARAMETER IS    0.5772
          OVERALL BASIS SET ON ATOM IS LAPW
:E1_0002: E( 1)=    0.5772
             APW+lo
:E1_0002: E( 1)=   -3.0484   E(BOTTOM)=   -3.082   E(TOP)=   -3.015  1  2   191
             LOCAL ORBITAL
:E2_0002: E( 2)=    0.7298   E(BOTTOM)=    0.481   E(TOP)=    0.979  0  1   120
             APW+lo
:E0_0002: E( 0)=    0.5772
             APW+lo

          ATOMIC SPHERE DEPENDENT PARAMETERS FOR ATOM  Rh1       
:e__0003: OVERALL ENERGY PARAMETER IS    0.5772
          OVERALL BASIS SET ON ATOM IS LAPW
:E1_0003: E( 1)=    0.5772
             APW+lo
:E1_0003: E( 1)=   -2.5916   E(BOTTOM)=   -2.690   E(TOP)=   -2.494  2  3   172
             LOCAL ORBITAL
:E2_0003: E( 2)=    0.5772   E(BOTTOM)=    0.223   E(TOP)= -200.000  1 -1    89
             APW+lo
:E0_0003: E( 0)=    0.5772
             APW+lo

       K=   0.00000   0.00000   0.00000            1
:RKM  : MATRIX SIZE   185LOs:  48  RKM= 6.64  WEIGHT= 1.00  PGR:    
       EIGENVALUES ARE:
:EIG00001:      -3.0422289   -3.0422289   -3.0422289   -3.0404006   -3.0404006
:EIG00006:      -3.0404006   -2.5743642   -2.5743642   -2.5743642   -2.5668772
:EIG00011:      -2.5668772   -2.5668772    0.1770643    0.4286988    0.4286988
:EIG00016:       0.4915231    0.4915231    0.4915231    0.6517691    0.6517691
:EIG00021:       0.6517691    0.6576214    0.6576214    0.6576214    0.8121585
:EIG00026:       0.8121585    0.8283912    0.8283912    0.8461342    0.8461342
:EIG00031:       0.8989740    0.8989740    0.8989740    1.3635053    1.4334945
:EIG00036:       1.4334945    1.4334945    1.4361537    1.4361537    1.4361537
:EIG00041:       1.5343733    1.5343733    1.5343733    1.5821615    2.1058382
:EIG00046:       2.1058382    2.1663553    2.2639632    2.2639632    2.2639632
 
       ********************************************************

:KPT   :      NUMBER OF K-POINTS:    72
:GAP (global)   :    0.0    Ry =     0.0   eV (metal)
:GAP (this spin):    0.0    Ry =     0.0   eV (metal)
         Bandranges (emin - emax) and occupancy:
:BAN00025:  25    0.574723    0.650040  1.00000000
:BAN00026:  26    0.583747    0.653826  1.00000000
:BAN00027:  27    0.596674    0.657444  1.00000000
:BAN00028:  28    0.614249    0.660143  1.00000000
:BAN00029:  29    0.640865    0.717655  1.00000000
:BAN00030:  30    0.654145    0.717655  1.00000000
:BAN00031:  31    0.657647    0.745629  1.00000000
:BAN00032:  32    0.679371    0.745629  1.00000000
:BAN00033:  33    0.688087    0.763528  1.00126353
:BAN00034:  34    0.719708    1.210168  0.29902781
:BAN00035:  35    0.765598    1.269467  0.00029226
:BAN00036:  36    0.790272    1.269467  0.00000000
:BAN00037:  37    1.223454    1.454868  0.00000000
:BAN00038:  38    1.223454    1.541720  0.00000000
:BAN00039:  39    1.273591    1.753276  0.00000000
:BAN00040:  40    1.284379    1.755417  0.00000000
        Energy to separate low and high energystates:   -0.02424


:NOE  : NUMBER OF ELECTRONS          =   58.000

:FER  : F E R M I - ENERGY(TETRAH.M.)=   0.7697775400
:GMA  : POTENTIAL AND CHARGE CUT-OFF  12.00 Ry**.5

:POS001: ATOM    1 X,Y,Z = 0.00000 0.00000 0.00000  MULT= 1  ZZ= 26.000  Fe1       

       LMMAX  5
       LM=   0 0  4 0  4 4  6 0  6 4

:CHA001: TOTAL VALENCE CHARGE INSIDE SPHERE   1 =   8.0538    (RMT=  2.4300 )
:PCS001: PARTIAL CHARGES SPHERE =  1 S,P,D,F,      D-EG,D-T2G 
:QTL001: 0.2552 3.2896 4.4666 0.0309 0.0000 0.0000 0.0000 1.8511 2.6155 0.0000 0.0000 0.0000
        Q-s-low E-s-low   Q-p-low E-p-low   Q-d-low E-d-low   Q-f-low E-f-low
:EPL001:  0.0006 -2.6787    2.9952 -3.2335    0.0014 -2.6743    0.0006 -2.6749
        Q-s-hi  E-s-hi    Q-p-hi  E-p-hi    Q-d-hi  E-d-hi    Q-f-hi  E-f-hi 
:EPH001:  0.2546  0.2950    0.2944  0.4490    4.4652  0.5709    0.0304  0.5356

:POS002: ATOM    2 X,Y,Z = 0.50000 0.00000 0.00000  MULT= 1  ZZ= 26.000  Fe2       

       LMMAX  5
       LM=   0 0  4 0  4 4  6 0  6 4

:CHA002: TOTAL VALENCE CHARGE INSIDE SPHERE   2 =   8.0538    (RMT=  2.4300 )
:PCS002: PARTIAL CHARGES SPHERE =  2 S,P,D,F,      D-EG,D-T2G 
:QTL002: 0.2552 3.2896 4.4666 0.0309 0.0000 0.0000 0.0000 1.8511 2.6155 0.0000 0.0000 0.0000
        Q-s-low E-s-low   Q-p-low E-p-low   Q-d-low E-d-low   Q-f-low E-f-low
:EPL002:  0.0006 -2.6787    2.9952 -3.2335    0.0014 -2.6743    0.0006 -2.6749
        Q-s-hi  E-s-hi    Q-p-hi  E-p-hi    Q-d-hi  E-d-hi    Q-f-hi  E-f-hi 
:EPH002:  0.2546  0.2950    0.2944  0.4490    4.4652  0.5709    0.0304  0.5356

:POS003: ATOM    3 X,Y,Z = 0.25000 0.25000 0.25000  MULT= 2  ZZ= 45.000  Rh1       

       LMMAX  6
       LM=   0 0  4 0  4 4  6 0  6 4 -3 2

:CHA003: TOTAL VALENCE CHARGE INSIDE SPHERE   3 =   7.2995    (RMT=  2.4300 )
:PCS003: PARTIAL CHARGES SPHERE =  3 S,P,D,F,      D-EG,D-T2G 
:QTL003: 0.1889 3.1858 3.8906 0.0264 0.0000 0.0000 0.0000 1.5600 2.3306 0.0000 0.0000 0.0000
        Q-s-low E-s-low   Q-p-low E-p-low   Q-d-low E-d-low   Q-f-low E-f-low
:EPL003:  0.0001 -3.1425    2.9787 -2.6699    0.0004 -3.1563    0.0002 -3.1546
        Q-s-hi  E-s-hi    Q-p-hi  E-p-hi    Q-d-hi  E-d-hi    Q-f-hi  E-f-hi 
:EPH003:  0.1887  0.2942    0.2071  0.4631    3.8902  0.5275    0.0262  0.5466

:CHA  : TOTAL VALENCE CHARGE INSIDE UNIT CELL =      33.300584

:SUM  : SUM OF EIGENVALUES =         -24.364855960

:GAP (global)   :    0.0    Ry =     0.0   eV (metal)
:GAP (this spin):    0.0    Ry =     0.0   eV (metal)
         Bandranges (emin - emax) and occupancy:
:BAN00017:  17    0.491523    0.590511  1.00000000
:BAN00018:  18    0.491523    0.590511  1.00000000
:BAN00019:  19    0.532747    0.651769  1.00000000
:BAN00020:  20    0.579501    0.655688  1.00000000
:BAN00021:  21    0.583335    0.655688  1.00000000
:BAN00022:  22    0.583335    0.712767  1.00000000
:BAN00023:  23    0.585952    0.745325  1.00000000
:BAN00024:  24    0.585952    0.756129  1.00000000
:BAN00025:  25    0.733282    0.812507  0.51089431
:BAN00026:  26    0.754805    0.819517  0.18762852
:BAN00027:  27    0.767635    0.828391  0.00089358
:BAN00028:  28    0.776950    0.828391  0.00000000
:BAN00029:  29    0.805687    0.871965  0.00000000
:BAN00030:  30    0.812269    0.871965  0.00000000
:BAN00031:  31    0.818984    0.898974  0.00000000
:BAN00032:  32    0.839789    0.898974  0.00000000
        Energy to separate low and high energystates:    0.12706


:NOE  : NUMBER OF ELECTRONS          =   58.000

:FER  : F E R M I - ENERGY(TETRAH.M.)=   0.7697775400
:GMA  : POTENTIAL AND CHARGE CUT-OFF  12.00 Ry**.5

:POS001: ATOM    1 X,Y,Z = 0.00000 0.00000 0.00000  MULT= 1  ZZ= 26.000  Fe1       

       LMMAX  5
       LM=   0 0  4 0  4 4  6 0  6 4

:CHA001: TOTAL VALENCE CHARGE INSIDE SPHERE   1 =   5.0973    (RMT=  2.4300 )
:PCS001: PARTIAL CHARGES SPHERE =  1 S,P,D,F,      D-EG,D-T2G 
:QTL001: 0.2314 3.2444 1.5921 0.0221 0.0000 0.0000 0.0000 0.4953 1.0968 0.0000 0.0000 0.0000
        Q-s-low E-s-low   Q-p-low E-p-low   Q-d-low E-d-low   Q-f-low E-f-low
:EPL001:  0.0005 -2.5796    2.9949 -3.0410    0.0013 -2.5753    0.0005 -2.5758
        Q-s-hi  E-s-hi    Q-p-hi  E-p-hi    Q-d-hi  E-d-hi    Q-f-hi  E-f-hi 
:EPH001:  0.2309  0.4085    0.2495  0.5559    1.5908  0.6144    0.0215  0.6058

:POS002: ATOM    2 X,Y,Z = 0.50000 0.00000 0.00000  MULT= 1  ZZ= 26.000  Fe2       

       LMMAX  5
       LM=   0 0  4 0  4 4  6 0  6 4

:CHA002: TOTAL VALENCE CHARGE INSIDE SPHERE   2 =   5.0973    (RMT=  2.4300 )
[...]
             APW+lo
:E1_0001: E( 1)=   -3.1662   E(BOTTOM)=   -3.199   E(TOP)=   -3.134  1  2   177
             LOCAL ORBITAL
:E2_0001: E( 2)=    0.6234   E(BOTTOM)=    0.380   E(TOP)=    0.867  0  1   124
             APW+lo
:E0_0001: E( 0)=    0.4542
             APW+lo

          ATOMIC SPHERE DEPENDENT PARAMETERS FOR ATOM  Fe2       
:e__0002: OVERALL ENERGY PARAMETER IS    0.4542
          OVERALL BASIS SET ON ATOM IS LAPW
:E1_0002: E( 1)=    0.4542
             APW+lo
:E1_0002: E( 1)=   -3.1655   E(BOTTOM)=   -3.198   E(TOP)=   -3.133  1  2   182
             LOCAL ORBITAL
:E2_0002: E( 2)=    0.6240   E(BOTTOM)=    0.381   E(TOP)=    0.867  0  1   125
             APW+lo
:E0_0002: E( 0)=    0.4542
             APW+lo

          ATOMIC SPHERE DEPENDENT PARAMETERS FOR ATOM  Rh1       
:e__0003: OVERALL ENERGY PARAMETER IS    0.4542
          OVERALL BASIS SET ON ATOM IS LAPW
:E1_0003: E( 1)=    0.4542
             APW+lo
:E1_0003: E( 1)=   -2.7547   E(BOTTOM)=   -2.849   E(TOP)=   -2.661  2  3   157
             LOCAL ORBITAL
:E2_0003: E( 2)=    0.5323   E(BOTTOM)=    0.095   E(TOP)=    0.969  1  2   144
             APW+lo
:E0_0003: E( 0)=    0.4542
             APW+lo

       K=   0.00000   0.00000   0.00000            1
:RKM  : MATRIX SIZE   185LOs:  48  RKM= 6.64  WEIGHT= 1.00  PGR:    
       EIGENVALUES ARE:
:EIG00001:      -3.1599691   -3.1599691   -3.1599691   -3.1581246   -3.1581246
:EIG00006:      -3.1581246   -2.7385695   -2.7385695   -2.7385695   -2.7313742
:EIG00011:      -2.7313742   -2.7313742    0.0483848    0.3026648    0.3026648
:EIG00016:       0.3508592    0.3508592    0.3508592    0.5214397    0.5214397
:EIG00021:       0.5214397    0.5303351    0.5303351    0.5303351    0.6883592
:EIG00026:       0.6883592    0.7037725    0.7037725    0.7499144    0.7499144
:EIG00031:       0.7696324    0.7696324    0.7696324    1.2594541    1.2950574
:EIG00036:       1.2950574    1.2950574    1.3046962    1.3046962    1.3046962
:EIG00041:       1.3939909    1.3939909    1.3939909    1.4564920    1.9515365
:EIG00046:       1.9515365    2.0680585    2.1249508    2.1249508    2.1249508
 
       ********************************************************

:KPT   :      NUMBER OF K-POINTS:    72
:GAP (global)   :    0.0    Ry =     0.0   eV (metal)
:GAP (this spin):    0.0    Ry =     0.0   eV (metal)
         Bandranges (emin - emax) and occupancy:
:BAN00024:  24    0.345116    0.479881  1.00000000
:BAN00025:  25    0.460025    0.509241  1.00000000
:BAN00026:  26    0.473556    0.509241  1.00000000
:BAN00027:  27    0.480555    0.515415  1.00000000
:BAN00028:  28    0.486144    0.532274  1.00000000
:BAN00029:  29    0.501818    0.611937  1.00000000
:BAN00030:  30    0.516523    0.611937  1.00000000
:BAN00031:  31    0.518005    0.619187  1.00000000
:BAN00032:  32    0.555035    0.633680  1.00000000
:BAN00033:  33    0.564554    0.633680  1.00000000
:BAN00034:  34    0.607625    1.176025  0.22077937
:BAN00035:  35    0.664697    1.224643  0.00000000
:BAN00036:  36    0.708504    1.224643  0.00000000
:BAN00037:  37    1.166809    1.402252  0.00000000
:BAN00038:  38    1.171437    1.500046  0.00000000
:BAN00039:  39    1.236203    1.726148  0.00000000
        Energy to separate low and high energystates:   -0.02504


:NOE  : NUMBER OF ELECTRONS          =   58.000

:FER  : F E R M I - ENERGY(TETRAH.M.)=   0.6534446476
:GMA  : POTENTIAL AND CHARGE CUT-OFF  12.00 Ry**.5

:POS001: ATOM    1 X,Y,Z = 0.00000 0.00000 0.00000  MULT= 1  ZZ= 26.000  Fe1       

       LMMAX  5
       LM=   0 0  4 0  4 4  6 0  6 4

:CHA001: TOTAL VALENCE CHARGE INSIDE SPHERE   1 =   8.1618    (RMT=  2.4300 )
:PCS001: PARTIAL CHARGES SPHERE =  1 S,P,D,F,      D-EG,D-T2G 
:QTL001: 0.2480 3.2369 4.6408 0.0257 0.0000 0.0000 0.0000 1.8961 2.7447 0.0000 0.0000 0.0000
        Q-s-low E-s-low   Q-p-low E-p-low   Q-d-low E-d-low   Q-f-low E-f-low
:EPL001:  0.0005 -2.8084    2.9959 -3.4220    0.0012 -2.8046    0.0005 -2.8050
        Q-s-hi  E-s-hi    Q-p-hi  E-p-hi    Q-d-hi  E-d-hi    Q-f-hi  E-f-hi 
:EPH001:  0.2475  0.2711    0.2410  0.3921    4.6396  0.4238    0.0252  0.4526

:POS002: ATOM    2 X,Y,Z = 0.50000 0.00000 0.00000  MULT= 1  ZZ= 26.000  Fe2       

       LMMAX  5
       LM=   0 0  4 0  4 4  6 0  6 4

:CHA002: TOTAL VALENCE CHARGE INSIDE SPHERE   2 =   8.1616    (RMT=  2.4300 )
:PCS002: PARTIAL CHARGES SPHERE =  2 S,P,D,F,      D-EG,D-T2G 
:QTL002: 0.2480 3.2366 4.6408 0.0257 0.0000 0.0000 0.0000 1.8960 2.7449 0.0000 0.0000 0.0000
        Q-s-low E-s-low   Q-p-low E-p-low   Q-d-low E-d-low   Q-f-low E-f-low
:EPL002:  0.0005 -2.8084    2.9959 -3.4213    0.0012 -2.8046    0.0005 -2.8050
        Q-s-hi  E-s-hi    Q-p-hi  E-p-hi    Q-d-hi  E-d-hi    Q-f-hi  E-f-hi 
:EPH002:  0.2475  0.2713    0.2408  0.3919    4.6397  0.4243    0.0251  0.4526

:POS003: ATOM    3 X,Y,Z = 0.25000 0.25000 0.25000  MULT= 2  ZZ= 45.000  Rh1       

       LMMAX  6
       LM=   0 0  4 0  4 4  6 0  6 4 -3 2

:CHA003: TOTAL VALENCE CHARGE INSIDE SPHERE   3 =   7.3483    (RMT=  2.4300 )
:PCS003: PARTIAL CHARGES SPHERE =  3 S,P,D,F,      D-EG,D-T2G 
:QTL003: 0.1715 3.1402 4.0106 0.0195 0.0000 0.0000 0.0000 1.6036 2.4070 0.0000 0.0000 0.0000
        Q-s-low E-s-low   Q-p-low E-p-low   Q-d-low E-d-low   Q-f-low E-f-low
:EPL003:  0.0001 -3.3220    2.9810 -2.8004    0.0003 -3.3379    0.0002 -3.3373
        Q-s-hi  E-s-hi    Q-p-hi  E-p-hi    Q-d-hi  E-d-hi    Q-f-hi  E-f-hi 
:EPH003:  0.1713  0.2595    0.1593  0.3928    4.0102  0.4477    0.0194  0.4249

:CHA  : TOTAL VALENCE CHARGE INSIDE UNIT CELL =      33.220779

:SUM  : SUM OF EIGENVALUES =         -28.468671027

:GAP (global)   :    0.0    Ry =     0.0   eV (metal)
:GAP (this spin):    0.0    Ry =     0.0   eV (metal)
         Bandranges (emin - emax) and occupancy:
:BAN00017:  17    0.350859    0.452917  1.00000000
:BAN00018:  18    0.350859    0.452917  1.00000000
:BAN00019:  19    0.395131    0.521440  1.00000000
:BAN00020:  20    0.447189    0.521440  1.00000000
:BAN00021:  21    0.449427    0.525977  1.00000000
:BAN00022:  22    0.449427    0.586347  1.00000000
:BAN00023:  23    0.452399    0.608995  1.00000000
:BAN00024:  24    0.452543    0.637517  1.00000000
:BAN00025:  25    0.615829    0.697147  0.49902176
:BAN00026:  26    0.636465    0.697147  0.26631220
:BAN00027:  27    0.648057    0.703773  0.01388667
:BAN00028:  28    0.666055    0.713829  0.00000000
:BAN00029:  29    0.679777    0.749914  0.00000000
:BAN00030:  30    0.683966    0.749914  0.00000000
:BAN00031:  31    0.709755    0.770648  0.00000000
:BAN00032:  32    0.721470    0.776128  0.00000000
        Energy to separate low and high energystates:   -0.00162


:NOE  : NUMBER OF ELECTRONS          =   58.000

:FER  : F E R M I - ENERGY(TETRAH.M.)=   0.6534446476
:GMA  : POTENTIAL AND CHARGE CUT-OFF  12.00 Ry**.5

:POS001: ATOM    1 X,Y,Z = 0.00000 0.00000 0.00000  MULT= 1  ZZ= 26.000  Fe1       

       LMMAX  5
       LM=   0 0  4 0  4 4  6 0  6 4

:CHA001: TOTAL VALENCE CHARGE INSIDE SPHERE   1 =   4.9513    (RMT=  2.4300 )
:PCS001: PARTIAL CHARGES SPHERE =  1 S,P,D,F,      D-EG,D-T2G 
:QTL001: 0.2253 3.2429 1.4527 0.0227 0.0000 0.0000 0.0000 0.4009 1.0517 0.0000 0.0000 0.0000
        Q-s-low E-s-low   Q-p-low E-p-low   Q-d-low E-d-low   Q-f-low E-f-low
:EPL001:  0.0005 -2.7436    2.9949 -3.1591    0.0012 -2.7394    0.0005 -2.7417
        Q-s-hi  E-s-hi    Q-p-hi  E-p-hi    Q-d-hi  E-d-hi    Q-f-hi  E-f-hi 
:EPH001:  0.2248  0.2807    0.2479  0.4241    1.4514  0.4943    0.0222  0.4712

:POS002: ATOM    2 X,Y,Z = 0.50000 0.00000 0.00000  MULT= 1  ZZ= 26.000  Fe2       

       LMMAX  5
       LM=   0 0  4 0  4 4  6 0  6 4

:CHA002: TOTAL VALENCE CHARGE INSIDE SPHERE   2 =   4.9451    (RMT=  2.4300 )
:PCS002: PARTIAL CHARGES SPHERE =  2 S,P,D,F,      D-EG,D-T2G 
:QTL002: 0.2253 3.2428 1.4466 0.0227 0.0000 0.0000 0.0000 0.3990 1.0476 0.0000 0.0000 0.0000
        Q-s-low E-s-low   Q-p-low E-p-low   Q-d-low E-d-low   Q-f-low E-f-low
:EPL002:  0.0005 -2.7436    2.9949 -3.1585    0.0012 -2.7394    0.0005 -2.7417
        Q-s-hi  E-s-hi    Q-p-hi  E-p-hi    Q-d-hi  E-d-hi    Q-f-hi  E-f-hi 
:EPH002:  0.2248  0.2808    0.2479  0.4241    1.4454  0.4942    0.0222  0.4712

:POS003: ATOM    3 X,Y,Z = 0.25000 0.25000 0.25000  MULT= 2  ZZ= 45.000  Rh1       

       LMMAX  6
       LM=   0 0  4 0  4 4  6 0  6 4 -3 2

:CHA003: TOTAL VALENCE CHARGE INSIDE SPHERE   3 =   6.3009    (RMT=  2.4300 )
:PCS003: PARTIAL CHARGES SPHERE =  3 S,P,D,F,      D-EG,D-T2G 
:QTL003: 0.1848 3.1640 2.9346 0.0144 0.0000 0.0000 0.0000 0.9657 1.9689 0.0000 0.0000 0.0000
        Q-s-low E-s-low   Q-p-low E-p-low   Q-d-low E-d-low   Q-f-low E-f-low
:EPL003:  0.0002 -3.1018    2.9803 -2.7356    0.0004 -3.1091    0.0002 -3.1007
        Q-s-hi  E-s-hi    Q-p-hi  E-p-hi    Q-d-hi  E-d-hi    Q-f-hi  E-f-hi 
:EPH003:  0.1846  0.2986    0.1837  0.4567    2.9342  0.4336    0.0142  0.5048

:CHA  : TOTAL VALENCE CHARGE INSIDE UNIT CELL =      24.779221

:SUM  : SUM OF EIGENVALUES =         -29.846891010


        1.ATOM      Fe1                   5 CORE STATES
:1S 001: 1S                -513.181817484 Ry
:2S 001: 2S                 -59.167584213 Ry
:2PP001: 2P*                -50.854254329 Ry
:2P 001: 2P                 -49.938158615 Ry
:3S 001: 3S                  -5.919249690 Ry

        2.ATOM      Fe2                   5 CORE STATES
:1S 002: 1S                -513.180788884 Ry
:2S 002: 2S                 -59.166597495 Ry
:2PP002: 2P*                -50.853257322 Ry
:2P 002: 2P                 -49.937162608 Ry
:3S 002: 3S                  -5.918573788 Ry

        3.ATOM      Rh1                  10 CORE STATES
:1S 003: 1S               -1691.498046984 Ry
:2S 003: 2S                -244.400539115 Ry
:2PP003: 2P*               -226.208209704 Ry
:2P 003: 2P                -215.579359823 Ry
:3S 003: 3S                 -42.924519826 Ry
:3PP003: 3P*                -35.807226769 Ry
:3P 003: 3P                 -33.978233966 Ry
:3DD003: 3D*                -21.383903458 Ry
:3D 003: 3D                 -21.023165138 Ry
:4S 003: 4S                  -5.159849518 Ry

        1.ATOM      Fe1                   5 CORE STATES
:1S 001: 1S                -513.182363989 Ry
:2S 001: 2S                 -59.048756392 Ry
:2PP001: 2P*                -50.766005676 Ry
:2P 001: 2P                 -49.847307351 Ry
:3S 001: 3S                  -5.649864222 Ry

        2.ATOM      Fe2                   5 CORE STATES
:1S 002: 1S                -513.181335402 Ry
:2S 002: 2S                 -59.047767576 Ry
:2PP002: 2P*                -50.765007109 Ry
:2P 002: 2P                 -49.846309745 Ry
:3S 002: 3S                  -5.649190750 Ry

        3.ATOM      Rh1                  10 CORE STATES
:1S 003: 1S               -1691.498351872 Ry
:2S 003: 2S                -244.385855180 Ry
:2PP003: 2P*               -226.197749743 Ry
:2P 003: 2P                -215.568110526 Ry
:3S 003: 3S                 -42.917311417 Ry
:3PP003: 3P*                -35.798716820 Ry
:3P 003: 3P                 -33.970057471 Ry
:3DD003: 3D*                -21.370693571 Ry
:3D 003: 3D                 -21.010013200 Ry
:4S 003: 4S                  -5.097067707 Ry
:CINT001 Core Integral Atom   1 Up    5.999661 Dn   5.999609 Total  11.999271
:CINT002 Core Integral Atom   2 Up    5.999661 Dn   5.999609 Total  11.999270
:CINT003 Core Integral Atom   3 Up   14.998746 Dn  14.998710 Total  29.997456

       DENSITY AT NUCLEUS
        JATOM        VALENCE       SEMI-CORE          CORE           TOTAL
:RTO001:   1        6.958203        0.000000    15302.762206    15309.720409
:RTO002:   2        6.957818        0.000000    15302.755053    15309.712871
:RTO003:   3       23.013530        0.000000   155315.085607   155338.099137

       HYPERFINE FIELDS FOR THOMSON RADIUS
:HFF001:          213.875           0.000        -392.026        -178.151 (KGAUSS)
:HFF002:          214.140           0.000        -392.010        -177.869 (KGAUSS)
:HFF003:         -212.952           0.000        -288.380        -501.332 (KGAUSS)
     
       CHARGES OF NEW CHARGE DENSITY
:NTO   : INTERSTITIAL     UP =     2.200710 DN =     2.280968 TOT =     4.481678
:NPC   : PW Pseudocharge  UP =     5.731024 DN =     4.984440 TOT =    10.715464
:NTO001: CHARGE SPHERE  1 UP =    14.161452 DN =    10.950888 TOT =    25.112340
:NTO002: CHARGE SPHERE  2 UP =    14.161228 DN =    10.944701 TOT =    25.105930
:NTO003: CHARGE SPHERE  3 UP =    22.347082 DN =    21.299639 TOT =    43.646720

:NEC01: NUCLEAR AND ELECTRONIC CHARGE    142.00000   141.99339
     
       CHARGES OF OLD CHARGE DENSITY
:OTO   : INTERSTITIAL     UP =     2.203881 DN =     2.280510 TOT =     4.484391
:OPC   : PW Pseudocharge  UP =     5.727678 DN =     4.985764 TOT =    10.713442
:OTO001: CHARGE SPHERE  1 UP =    14.159242 DN =    10.952496 TOT =    25.111738
:OTO002: CHARGE SPHERE  2 UP =    14.159467 DN =    10.952728 TOT =    25.112194
:OTO003: CHARGE SPHERE  3 UP =    22.345963 DN =    21.299875 TOT =    43.645838

:NEC02: NUCLEAR AND ELECTRONIC CHARGE    142.00000   142.00000
     
       CONVERGENCE TEST
:DTO001: DIFFERENCE SPHERE  1 UP =  0.0029143 DN =  0.0042814 TOT =  0.0071957
:DTO002: DIFFERENCE SPHERE  2 UP =  0.0018125 DN =  0.0110749 TOT =  0.0128874
:DTO003: DIFFERENCE SPHERE  3 UP =  0.0029030 DN =  0.0009095 TOT =  0.0038125

:DIS  :  CHARGE DISTANCE       ( 0.0110749 for atom    2 spin 2)      0.0138541
 PW Mixed is           49
 
******************************************************
* MULTISECANT MIXING VER9 RELEASE 10.4.0              *
* Standard Mode with controls                        *
* Fixed density scale                                *
* Regularization       1.000E-04                     *
* Trust Upper Limit    5.000E+00                     *
* Max Number of Memory Steps    8                    *
******************************************************
 
:PWTMP   1.1765E+02  4.5917E+02  3.5807E+02
:PLANE:  PW TOTAL      2.3662 DISTAN   7.75E-03  3.27E-01 %
:CHARG:  CLM/ATOM    212.0473 DISTAN   4.72E-03  2.23E-03 %
 
Step History
        DMIX         DMIXT        Red     Pred      Trust     Lambda    MagRel    MagAbs     Beta
  4   4.6208E-02   4.6208E-02  9.17E-01  9.88E-01  1.67E-01  1.40E+00  4.70E-02  5.92E-02  9.70E-01
  5   1.1552E-01   8.5658E-02  8.51E-01  7.81E-01  2.80E-01  6.98E-01  1.95E-01  2.25E-01  1.00E+00
  6   9.5499E-02   9.3802E-02  6.92E-01  7.97E-01  9.05E-01  8.22E-02  4.25E-01  4.18E-01  1.00E+00
  7   2.3875E-01   2.3875E-01  4.20E-01  4.03E-01  1.31E+00  7.33E-01  6.59E-01  4.49E-01  1.00E+00
  8   3.5000E-01   3.5000E-01  5.61E-01  5.85E-01  4.18E+00  2.97E-01  1.13E+00  3.23E-01  1.00E+00
  9   3.5000E-01   3.5000E-01  5.74E-01  1.53E-01  5.57E+00  7.46E-01  4.57E-01  7.32E-02  9.96E-01
 10   2.3868E-01   2.3868E-01  4.69E-01  2.92E-01  7.43E+00  8.18E-01  5.35E-01  4.92E-02  1.00E+00
 11   1.6712E-01   1.6712E-01  7.67E-01  6.23E-01  9.90E+00  7.34E-01  2.66E-01  1.15E-02  1.00E+00
 12   2.9904E-01   2.9904E-01 -1.00E+00  2.61E-01  9.01E+00  1.00E+00  4.65E-01  1.54E-02  1.00E+00
:JACOBIANS    7.479E-01   1.535E+00
  
:NORMS:  1/Froebius, Min, Max, Used   0.1041E+01  0.5897E+00  0.1341E+01  0.1262E+01
:INFO :  Number of Memory Steps    8 Skipping    3
:INFO :  SLambda=    0.9118747851  Max    0.9118747851
:PREDicted Charge, CTotal, PW Trust    4.074E-03   1.271E-02   3.239E-03
:PREDicted DMix, Beta, BLim   4.9691E-01  1.9784E+00  2.9135E+00

Eigenvalues, unscaled except for SY+YY
   #     SY Real        SY Imag          SS             YY         SY+YY Real      SY+YY Imag
   1   5.098717E+00   0.000000E+00   7.110896E+00   4.462127E+00   9.050710E+00   0.000000E+00
   2   1.216110E+00   0.000000E+00   1.183055E+00   1.705031E+00   2.832284E+00   0.000000E+00
   3   3.699870E-01   0.000000E+00   3.209473E-01   8.463724E-01   1.075608E+00   0.000000E+00
   4   1.667725E-01   0.000000E+00   4.555673E-02   5.412905E-01   7.139993E-01   0.000000E+00
   5   4.747661E-02   0.000000E+00   6.536758E-03   3.284941E-01   4.791019E-01   0.000000E+00
   6   1.987494E-02   0.000000E+00   2.782368E-03   1.158489E-01   1.565455E-01   0.000000E+00
   7   1.262714E-05   0.000000E+00   2.348183E-04   7.886434E-04   6.009578E-05   0.000000E+00
   8   4.529088E-04   0.000000E+00   7.694823E-06   4.736285E-05   1.320329E-03   0.000000E+00
 
:INFO :  Singular value  9.104E+00 Weight  1.000E+00 Projection  4.409E-03
:INFO :  Singular value  2.821E+00 Weight  1.000E+00 Projection -4.859E-03
:INFO :  Singular value  1.079E+00 Weight  1.000E+00 Projection  4.665E-03
:INFO :  Singular value  7.128E-01 Weight  1.000E+00 Projection  1.425E-03
:INFO :  Singular value  4.781E-01 Weight  1.000E+00 Projection -8.027E-03
:INFO :  Singular value  1.564E-01 Weight  1.000E+00 Projection  8.883E-04
:INFO :  Singular value  1.320E-03 Weight  8.974E-01 Projection  1.377E-01
:INFO :  Singular value  6.008E-05 Weight  1.781E-02 Projection -3.098E-04
:RANK :  ACTIVE   6.92/8  =  86.44 % ; YY RANK   6.77/8  =  84.61 %
 
:BLIM :  VZERO Control Off
:TRUST:  Step 1.19E+01  Charge 6.66E-02 (e) CTO  1.79E-01 (e) PW  2.25E-01 (e)
:DIRM :  MEMORY  8/8  SCALE   1.000 RED  0.44 PRED  0.26 NEXT  0.46 
:TRAVE:  Charge 4.35E-03 (e) CTO  9.86E-03 (e) PW  1.06E-02 (e)
:DIRP :  |MSR1|= 2.938E-03 |PRATT|= 3.875E-03 ANGLE=  35.8 DEGREES
:DIRQ :  |MSR1|= 2.041E-02 |PRATT|= 1.416E-02 ANGLE=  34.7 DEGREES
:DIRT :  |MSR1|= 2.062E-02 |PRATT|= 1.468E-02 ANGLE=  35.3 DEGREES
:MIX  :   MSE1   REGULARIZATION:  4.46E-04 GREED: 0.35000  Newton 1.00  1.4046                
     
       CHARGES OF MIXED CHARGE DENSITY
:CTO   : INTERSTITIAL     UP =     2.200441 DN =     2.288018 TOT =     4.488459
:CPC   : PW Pseudocharge  UP =     5.735550 DN =     4.990714 TOT =    10.726264
:CTO001: CHARGE SPHERE  1 UP =    14.164269 DN =    10.946693 TOT =    25.110962
:CTO002: CHARGE SPHERE  2 UP =    14.164857 DN =    10.946035 TOT =    25.110892
:CTO003: CHARGE SPHERE  3 UP =    22.348083 DN =    21.296760 TOT =    43.644843

       SPIN MAGNETIC MOMENTS OF MIXED CHARGE DENSITY
:MMINT:  MAGNETIC MOMENT IN INTERSTITIAL  =   -0.08758
:MMI001: MAGNETIC MOMENT IN SPHERE   1    =    3.21758
:MMI002: MAGNETIC MOMENT IN SPHERE   2    =    3.21882
:MMI003: MAGNETIC MOMENT IN SPHERE   3    =    1.05132
:MMTOT:  SPIN MAGNETIC MOMENT IN CELL     =    8.45147

:NEC03: NUCLEAR AND ELECTRONIC CHARGE    142.00000   142.00000

PW CHANGE     H    K    L      Current       Change    Residue
:PUP001:      0    0    0  2.21632156E-02  1.238E-05  3.317E-05
:PUP002:     -1   -1   -1  1.60313039E-06  6.629E-07  9.914E-07
:PUP003:      0    0   -2 -5.89793959E-03 -3.002E-05 -3.001E-05
:PUP004:      0   -2   -2  2.79560732E-03  2.001E-04  2.401E-04
:PUP005:     -1   -1   -3 -4.49680954E-06 -2.608E-06 -1.309E-06
:PUP006:     -2   -2   -2  2.60420864E-03 -4.004E-06 -3.004E-05
:PUP007:      0    0   -4 -6.44417982E-03  3.228E-05  6.686E-05
:PUP008:     -1   -3   -3  3.33838998E-06  2.029E-06  3.475E-06
:PUP009:      0   -2   -4  6.30312782E-03  6.370E-06 -5.168E-05
:PUP010:     -2   -2   -4 -1.25909020E-02  2.536E-05  1.450E-04
:PUP011:     -3   -3   -3 -5.65589900E-07 -3.204E-07 -3.992E-07
:PUP012:     -1   -1   -5  6.14091898E-07  3.902E-07  3.607E-07
  
:PDN001:      0    0    0  2.03276591E-02  3.479E-05  2.751E-05
:PDN002:     -1   -1   -1 -4.71155377E-07  6.301E-07  1.075E-05
:PDN003:      0    0   -2 -7.80112988E-03 -5.250E-06 -1.693E-05
:PDN004:      0   -2   -2 -3.35663904E-03 -7.202E-05  5.956E-05
:PDN005:     -1   -1   -3 -3.54485870E-06 -1.688E-06 -9.172E-06
:PDN006:     -2   -2   -2  2.67251830E-03 -2.726E-05 -3.596E-05
:PDN007:      0    0   -4 -5.84499007E-03  1.206E-05  4.184E-05
:PDN008:     -1   -3   -3 -1.73677706E-06 -1.445E-06 -6.706E-06
:PDN009:      0   -2   -4  6.93508992E-03 -2.715E-05 -3.462E-05
:PDN010:     -2   -2   -4 -6.24676986E-03  6.498E-05  9.985E-05
:PDN011:     -3   -3   -3 -3.07769593E-07 -9.034E-08 -1.321E-07
:PDN012:     -1   -1   -5 -1.23565112E-06 -8.509E-07 -3.500E-06

:ENE  : ********** TOTAL ENERGY IN Ry =       -24232.22747639

