
:LABEL1: Calculations in /home/cmueller/wien/FZU/src/FeRh/FFM/2000k
:LABEL2: on cv036 at Tue Mar 11 05:10:08 PM CET 2025
:LABEL3: using WIEN2k_19.1 (Release 25/6/2019) in /home/cmueller/WIENROOT
:LABEL4: using the command: run_lapw
 Flat Integration
 New Mode for Coulomb Integral
 Consistent 3/8+Simpson combinations
 Extension of core to zero
 LDM version in phi
 Fifth-order quadrature in outwin


            ---------
:ITE001:  1. ITERATION
            ---------

:NATO :    3 INDEPENDENT AND    4 TOTAL ATOMS IN UNITCELL
       SUBSTANCE: FeRh                                                        

       LATTICE                      = F   
:POT  : POTENTIAL OPTION EX_PBE EC_PBE VX_PBE VC_PBE
:LAT  : LATTICE CONSTANTS= 11.27222 11.27222 11.27222    1.571    1.571    1.571
:VOL  : UNIT CELL VOLUME =     358.07036
       MODE OF CALCULATION IS       = RELA
       NON-SPINPOLARIZED CALCULATION
:IFFT  : FFT-parameters:   90   90   90 Factor: 2.00


   CONVERGENCE PARAMETER FOR PSEUDOCHARGE: NCON=  9
   MAXIMAL VALUE OF RMT(JATOM)*ABSK(NKK) : RK  =29.05063


:VKCOUL :  VK-COUL convergence: 0.126E-05
       ATOMNUMBER=  1 Fe1        VCOUL-ZERO =  0.65836E+00
       ATOMNUMBER=  2 Fe2        VCOUL-ZERO =  0.65836E+00
       ATOMNUMBER=  3 Rh1        VCOUL-ZERO =  0.62973E+00
:FIT001: LUSE= 13 SIGMA OF V-XC FIT FOR ATOM  1  0.5273943E-02
:FIT001: LUSE= 13 SIGMA OF V-XC FIT FOR ATOM  1  0.5273943E-02
:FIT002: LUSE= 13 SIGMA OF V-XC FIT FOR ATOM  2  0.5273943E-02
:FIT002: LUSE= 13 SIGMA OF V-XC FIT FOR ATOM  2  0.5273943E-02
:FIT003: LUSE= 13 SIGMA OF V-XC FIT FOR ATOM  3  0.1324738E-02
:FIT003: LUSE= 13 SIGMA OF V-XC FIT FOR ATOM  3  0.1324738E-02
:DEN  : DENSITY INTEGRAL  =         -9889.77809320   (Ry)
       ELS_POTENTIAL_AT Z=0 and Z=0.5:  -0.23886  -0.23886
       ELS_POTENTIAL_AT Y=0 and Y=0.5:   0.00000   0.00000
:VZERO:v0,v0c,v0x  -0.98015  -0.23886  -0.74129 v5,v5c,v5x  -0.98015  -0.23886  -0.74129
:VZERY:v0,v0c,v0x  -0.85926   0.00000  -0.85926 v5,v5c,v5x  -0.85926   0.00000  -0.85926
:VZERX:v0,v0c,v0x  -0.85926   0.00000  -0.85926 v5,v5c,v5x  -0.85926   0.00000  -0.85926
:LMAX-WF:   10   Non-Spherical LMAX:   4

          ATOMIC SPHERE DEPENDENT PARAMETERS FOR ATOM  Fe1       
:e__0001: OVERALL ENERGY PARAMETER IS    0.3000
          OVERALL BASIS SET ON ATOM IS LAPW
:E1_0001: E( 1)=    0.3000
             APW+lo
:E1_0001: E( 1)=   -3.0753   E(BOTTOM)=   -3.109   E(TOP)=   -3.042  1  2   186
             LOCAL ORBITAL
:E2_0001: E( 2)=    0.7000   E(BOTTOM)=    0.450   E(TOP)=    0.950  0  1   138
             APW+lo
:E0_0001: E( 0)=    0.3000
             APW+lo

          ATOMIC SPHERE DEPENDENT PARAMETERS FOR ATOM  Fe2       
:e__0002: OVERALL ENERGY PARAMETER IS    0.3000
          OVERALL BASIS SET ON ATOM IS LAPW
:E1_0002: E( 1)=    0.3000
             APW+lo
:E1_0002: E( 1)=   -3.0753   E(BOTTOM)=   -3.109   E(TOP)=   -3.042  1  2   186
             LOCAL ORBITAL
:E2_0002: E( 2)=    0.7000   E(BOTTOM)=    0.450   E(TOP)=    0.950  0  1   138
             APW+lo
:E0_0002: E( 0)=    0.3000
             APW+lo

          ATOMIC SPHERE DEPENDENT PARAMETERS FOR ATOM  Rh1       
:e__0003: OVERALL ENERGY PARAMETER IS    0.3000
          OVERALL BASIS SET ON ATOM IS LAPW
:E1_0003: E( 1)=    0.3000
             APW+lo
:E1_0003: E( 1)=   -2.5776   E(BOTTOM)=   -2.678   E(TOP)=   -2.478  2  3   175
             LOCAL ORBITAL
:E2_0003: E( 2)=    0.3000   E(BOTTOM)=    0.218   E(TOP)= -200.000  1 -1    94
             APW+lo
:E0_0003: E( 0)=    0.3000
             APW+lo

       K=   0.00000   0.00000   0.00000            1
:RKM  : MATRIX SIZE   185LOs:  48  RKM= 6.64  WEIGHT= 1.00  PGR:    
       EIGENVALUES ARE:
:EIG00001:      -3.0692391   -3.0692391   -3.0692391   -3.0672932   -3.0672932
:EIG00006:      -3.0672932   -2.5604539   -2.5604539   -2.5604539   -2.5525808
:EIG00011:      -2.5525808   -2.5525808    0.1348649    0.4049680    0.4049680
:EIG00016:       0.4721518    0.4721518    0.4721518    0.6178376    0.6178376
:EIG00021:       0.6178376    0.6432026    0.6432026    0.6432026    0.7910283
:EIG00026:       0.7910283    0.8158963    0.8158963    0.8314523    0.8314523
:EIG00031:       0.8841906    0.8841906    0.8841906    1.3267377    1.3964005
:EIG00036:       1.3964005    1.3964005    1.3971498    1.3971498    1.3971498
:EIG00041:       1.5207242    1.5207242    1.5207242    1.5592513
       ********************************************************

:KPT   :      NUMBER OF K-POINTS:    72
:GAP (global)   :    0.0    Ry =     0.0   eV (metal)
         Bandranges (emin - emax) and occupancy:
:BAN00022:  22    0.565072    0.696653  2.00000000
:BAN00023:  23    0.565072    0.724815  2.00000000
:BAN00024:  24    0.565072    0.726459  2.00000000
:BAN00025:  25    0.700983    0.792070  2.00000000
:BAN00026:  26    0.725318    0.802208  2.00003723
:BAN00027:  27    0.739717    0.815896  1.94098951
:BAN00028:  28    0.753918    0.815896  1.89400840
:BAN00029:  29    0.780795    0.852153  1.55222772
:BAN00030:  30    0.786898    0.852153  0.60074262
:BAN00031:  31    0.805822    0.884191  0.01164279
:BAN00032:  32    0.819058    0.884191  0.00035174
:BAN00033:  33    0.827104    0.904908  0.00000000
:BAN00034:  34    0.856807    1.330202  0.00000000
:BAN00035:  35    0.894899    1.396401  0.00000000
:BAN00036:  36    0.906272    1.396401  0.00000000
:BAN00037:  37    1.348034    1.581263  0.00000000
        Energy to separate low and high energystates:    0.08486


:NOE  : NUMBER OF ELECTRONS          =   58.000

:FER  : F E R M I - ENERGY(TETRAH.M.)=   0.8084066233
:GMA  : POTENTIAL AND CHARGE CUT-OFF  12.00 Ry**.5

:POS001: ATOM    1 X,Y,Z = 0.00000 0.00000 0.00000  MULT= 1  ZZ= 26.000  Fe1       

       LMMAX  5
       LM=   0 0  4 0  4 4  6 0  6 4

:CHA001: TOTAL VALENCE CHARGE INSIDE SPHERE   1 =  13.4034    (RMT=  2.4300 )
:PCS001: PARTIAL CHARGES SPHERE =  1 S,P,D,F,      D-EG,D-T2G 
:QTL001: 0.4810 6.5450 6.3033 0.0554 0.0000 0.0000 0.0000 2.4887 3.8146 0.0000 0.0000 0.0000
        Q-s-low E-s-low   Q-p-low E-p-low   Q-d-low E-d-low   Q-f-low E-f-low
:EPL001:  0.0011 -2.5659    5.9898 -3.0680    0.0027 -2.5615    0.0011 -2.5620
        Q-s-hi  E-s-hi    Q-p-hi  E-p-hi    Q-d-hi  E-d-hi    Q-f-hi  E-f-hi 
:EPH001:  0.4798  0.3806    0.5552  0.5413    6.3005  0.6742    0.0543  0.6241

:POS002: ATOM    2 X,Y,Z = 0.50000 0.00000 0.00000  MULT= 1  ZZ= 26.000  Fe2       

       LMMAX  5
       LM=   0 0  4 0  4 4  6 0  6 4

:CHA002: TOTAL VALENCE CHARGE INSIDE SPHERE   2 =  13.4034    (RMT=  2.4300 )
:PCS002: PARTIAL CHARGES SPHERE =  2 S,P,D,F,      D-EG,D-T2G 
:QTL002: 0.4810 6.5450 6.3033 0.0554 0.0000 0.0000 0.0000 2.4887 3.8146 0.0000 0.0000 0.0000
        Q-s-low E-s-low   Q-p-low E-p-low   Q-d-low E-d-low   Q-f-low E-f-low
:EPL002:  0.0011 -2.5659    5.9898 -3.0680    0.0027 -2.5615    0.0011 -2.5620
        Q-s-hi  E-s-hi    Q-p-hi  E-p-hi    Q-d-hi  E-d-hi    Q-f-hi  E-f-hi 
:EPH002:  0.4798  0.3806    0.5552  0.5413    6.3005  0.6742    0.0543  0.6241

:POS003: ATOM    3 X,Y,Z = 0.25000 0.25000 0.25000  MULT= 2  ZZ= 45.000  Rh1       

       LMMAX  6
       LM=   0 0  4 0  4 4  6 0  6 4 -3 2

:CHA003: TOTAL VALENCE CHARGE INSIDE SPHERE   3 =  13.0689    (RMT=  2.4300 )
:PCS003: PARTIAL CHARGES SPHERE =  3 S,P,D,F,      D-EG,D-T2G 
:QTL003: 0.3765 6.3589 6.2726 0.0484 0.0000 0.0000 0.0000 2.3673 3.9053 0.0000 0.0000 0.0000
        Q-s-low E-s-low   Q-p-low E-p-low   Q-d-low E-d-low   Q-f-low E-f-low
:EPL003:  0.0003 -2.9898    5.9572 -2.5571    0.0008 -3.0011    0.0004 -2.9979
        Q-s-hi  E-s-hi    Q-p-hi  E-p-hi    Q-d-hi  E-d-hi    Q-f-hi  E-f-hi 
:EPH003:  0.3762  0.3990    0.4016  0.5650    6.2718  0.5914    0.0480  0.6596

:CHA  : TOTAL VALENCE CHARGE INSIDE UNIT CELL =      58.000000

:SUM  : SUM OF EIGENVALUES =         -47.127654884



   QTL-B VALUE .EQ.    2.57647   in Band of energy    0.81845   ATOM=    3   L=  2
    Most likely no ghostbands, but adjust Energy-parameters for this ATOM and L


:WARN : QTL-B value eq.   2.58 in Band of energy   0.81845  ATOM=    3  L=  2
:WARN : You should change the E-parameter for this atom and L-value in case.in1 (or try the -in1new switch)

        1.ATOM      Fe1                   5 CORE STATES
:1S 001: 1S                -512.917891279 Ry
:2S 001: 2S                 -58.826866001 Ry
:2PP001: 2P*                -50.530155331 Ry
:2P 001: 2P                 -49.612674471 Ry
:3S 001: 3S                  -5.554477635 Ry

        2.ATOM      Fe2                   5 CORE STATES
:1S 002: 1S                -512.917891279 Ry
:2S 002: 2S                 -58.826866001 Ry
:2PP002: 2P*                -50.530155331 Ry
:2P 002: 2P                 -49.612674471 Ry
:3S 002: 3S                  -5.554477635 Ry

        3.ATOM      Rh1                  10 CORE STATES
:1S 003: 1S               -1691.217358224 Ry
:2S 003: 2S                -244.109674305 Ry
:2PP003: 2P*               -225.919343956 Ry
:2P 003: 2P                -215.290136273 Ry
:3S 003: 3S                 -42.651986868 Ry
:3PP003: 3P*                -35.533746793 Ry
:3P 003: 3P                 -33.705449364 Ry
:3DD003: 3D*                -21.106761817 Ry
:3D 003: 3D                 -20.746244980 Ry
:4S 003: 4S                  -4.904518397 Ry
:CINT001 Core Integral Atom   1   11.999197
:CINT002 Core Integral Atom   2   11.999197
:CINT003 Core Integral Atom   3   29.997225

       DENSITY AT NUCLEUS
        JATOM        VALENCE       SEMI-CORE          CORE           TOTAL
:RTO001:   1        7.119648        0.000000    15301.515563    15308.635211
:RTO002:   2        7.119648        0.000000    15301.515563    15308.635211
:RTO003:   3       24.634812        0.000000   155310.014376   155334.649188
     
       CHARGES OF NEW CHARGE DENSITY
:NTO   : INTERSTITIAL CHARGE =     5.055340
:NPC   : PW Pseudocharge     =    11.587264
:NTO001: CHARGE SPHERE  1    =    25.402623
:NTO002: CHARGE SPHERE  2    =    25.402623
:NTO003: CHARGE SPHERE  3    =    43.066097

:NEC01: NUCLEAR AND ELECTRONIC CHARGE    142.00000   141.99278
     
       CHARGES OF OLD CHARGE DENSITY
:OTO   : INTERSTITIAL CHARGE =     3.805005
:OPC   : PW Pseudocharge     =    18.875488
:OTO001: CHARGE SPHERE  1    =    25.256897
:OTO002: CHARGE SPHERE  2    =    25.256897
:OTO003: CHARGE SPHERE  3    =    43.842573

:NEC02: NUCLEAR AND ELECTRONIC CHARGE    142.00000   142.00395
     
       CONVERGENCE TEST
:DTO001: DIFFERENCE IN SPHERE  1 =  0.4706574
:DTO002: DIFFERENCE IN SPHERE  2 =  0.4706575
:DTO003: DIFFERENCE IN SPHERE  3 =  0.9099494

:DIS  :  CHARGE DISTANCE       ( 0.9099494 for atom    3 spin 1)      0.6903034
 PW Mixed is           49
 
******************************************************
* MULTISECANT MIXING VER9 RELEASE 10.4.0              *
* Standard Mode with controls                        *
* Fixed density scale                                *
* Regularization       1.000E-04                     *
* Trust Upper Limit    5.000E+00                     *
* Max Number of Memory Steps    8                    *
******************************************************
 
:PWTMP   1.1765E+02  4.5917E+02  3.5807E+02
:PLANE:  PW TOTAL      2.9797 DISTAN   1.87E+00  6.27E+01 %
:CHARG:  CLM/ATOM    299.8813 DISTAN   4.89E-01  1.63E-01 %
 
Step History
        DMIX         DMIXT        Red     Pred      Trust     Lambda    MagRel    MagAbs     Beta
  1   3.5000E-02   3.5000E-02 -1.00E+00  1.00E+00 -1.00E+01  1.00E+00  3.50E-02  3.50E-02  1.00E+00
:INFO :  Note, Pratt in use
:TRUST:  Step 3.75E-02  Charge 7.50E-02 (e) CTO  2.50E-01 (e) PW  3.50E-01 (e)
:DIRM :  MEMORY  0/ 8 SCALE   1.000
Performing Pseudo Compensation
Final Pseudo Compensation Rescaling     9.98218E-01
:MIX  :   PRATT  REGULARIZATION:  1.00E-04 GREED: 0.02500                  
     
       CHARGES OF MIXED CHARGE DENSITY
:CTO   : INTERSTITIAL CHARGE =     3.832597
:CPC   : PW Pseudocharge     =    13.593090
:CTO001: CHARGE SPHERE  1    =    25.260540
:CTO002: CHARGE SPHERE  2    =    25.260540
:CTO003: CHARGE SPHERE  3    =    43.823162

:NEC03: NUCLEAR AND ELECTRONIC CHARGE    142.00000   142.00000

PW CHANGE     H    K    L      Current       Change    Residue
:PTO001:      0    0    0  4.86655388E-02 -1.461E-02 -1.673E-02
:PTO003:      0    0   -2 -2.51272545E-02  2.291E-02  3.719E-02
:PTO004:      0   -2   -2  3.52760880E-02 -1.012E-01 -1.408E-01
:PTO006:     -2   -2   -2  1.33813053E-03  1.509E-02  1.719E-02
:PTO007:      0    0   -4 -1.19359585E-02 -2.655E-02 -2.713E-02
:PTO009:      0   -2   -4  1.81044553E-02  1.933E-02  1.126E-02
:PTO010:     -2   -2   -4 -4.40146990E-02 -4.908E-02 -2.468E-02
:PTO013:      0   -4   -4 -1.18187467E-02 -8.936E-03  1.852E-03
:PTO015:     -2   -4   -4  5.93747628E-03 -2.671E-04 -5.056E-03
:PTO016:      0    0   -6  1.49250868E-03 -5.864E-05 -9.384E-04
:PTO017:      0   -2   -6 -8.06074585E-03 -2.721E-03  5.827E-03
:PTO019:     -2   -2   -6  1.46821608E-03 -2.438E-03 -3.584E-03

:ENE  : *WARNING** TOTAL ENERGY IN Ry =       -24232.24493840

 Flat Integration
 New Mode for Coulomb Integral
 Consistent 3/8+Simpson combinations
 Extension of core to zero
 LDM version in phi
 Fifth-order quadrature in outwin


            ---------
:ITE002:  2. ITERATION
            ---------

:NATO :    3 INDEPENDENT AND    4 TOTAL ATOMS IN UNITCELL
       SUBSTANCE: FeRh                                                        

       LATTICE                      = F   
:POT  : POTENTIAL OPTION EX_PBE EC_PBE VX_PBE VC_PBE
:LAT  : LATTICE CONSTANTS= 11.27222 11.27222 11.27222    1.571    1.571    1.571
:VOL  : UNIT CELL VOLUME =     358.07036
       MODE OF CALCULATION IS       = RELA
       NON-SPINPOLARIZED CALCULATION
:IFFT  : FFT-parameters:   90   90   90 Factor: 2.00


   CONVERGENCE PARAMETER FOR PSEUDOCHARGE: NCON=  9
   MAXIMAL VALUE OF RMT(JATOM)*ABSK(NKK) : RK  =29.05063


:VKCOUL :  VK-COUL convergence: 0.476E-07
       ATOMNUMBER=  1 Fe1        VCOUL-ZERO =  0.63013E+00
       ATOMNUMBER=  2 Fe2        VCOUL-ZERO =  0.63013E+00
       ATOMNUMBER=  3 Rh1        VCOUL-ZERO =  0.59933E+00
:FIT001: LUSE= 13 SIGMA OF V-XC FIT FOR ATOM  1  0.5081439E-02
:FIT001: LUSE= 13 SIGMA OF V-XC FIT FOR ATOM  1  0.5081439E-02
:FIT002: LUSE= 13 SIGMA OF V-XC FIT FOR ATOM  2  0.5081439E-02
:FIT002: LUSE= 13 SIGMA OF V-XC FIT FOR ATOM  2  0.5081439E-02
:FIT003: LUSE= 13 SIGMA OF V-XC FIT FOR ATOM  3  0.1207415E-02
:FIT003: LUSE= 13 SIGMA OF V-XC FIT FOR ATOM  3  0.1207415E-02
:DEN  : DENSITY INTEGRAL  =         -9883.01202458   (Ry)
       ELS_POTENTIAL_AT Z=0 and Z=0.5:  -0.21732  -0.21732
       ELS_POTENTIAL_AT Y=0 and Y=0.5:   0.00000   0.00000
:VZERO:v0,v0c,v0x  -0.85078  -0.21732  -0.63346 v5,v5c,v5x  -0.85078  -0.21732  -0.63346
:VZERY:v0,v0c,v0x  -0.81395   0.00000  -0.81395 v5,v5c,v5x  -0.81395   0.00000  -0.81395
:VZERX:v0,v0c,v0x  -0.81395   0.00000  -0.81395 v5,v5c,v5x  -0.81395   0.00000  -0.81395
:LMAX-WF:   10   Non-Spherical LMAX:   4

          ATOMIC SPHERE DEPENDENT PARAMETERS FOR ATOM  Fe1       
:e__0001: OVERALL ENERGY PARAMETER IS    0.5000
          OVERALL BASIS SET ON ATOM IS LAPW
:E1_0001: E( 1)=    0.5000
             APW+lo
:E1_0001: E( 1)=   -3.1105   E(BOTTOM)=   -3.144   E(TOP)=   -3.077  1  2   184
             LOCAL ORBITAL
:E2_0001: E( 2)=    0.6662   E(BOTTOM)=    0.418   E(TOP)=    0.915  0  1   125
             APW+lo
:E0_0001: E( 0)=    0.5000
             APW+lo

          ATOMIC SPHERE DEPENDENT PARAMETERS FOR ATOM  Fe2       
:e__0002: OVERALL ENERGY PARAMETER IS    0.5000
          OVERALL BASIS SET ON ATOM IS LAPW
:E1_0002: E( 1)=    0.5000
             APW+lo
:E1_0002: E( 1)=   -3.1105   E(BOTTOM)=   -3.144   E(TOP)=   -3.077  1  2   184
             LOCAL ORBITAL
:E2_0002: E( 2)=    0.6662   E(BOTTOM)=    0.418   E(TOP)=    0.915  0  1   125
             APW+lo
:E0_0002: E( 0)=    0.5000
             APW+lo

          ATOMIC SPHERE DEPENDENT PARAMETERS FOR ATOM  Rh1       
:e__0003: OVERALL ENERGY PARAMETER IS    0.5000
          OVERALL BASIS SET ON ATOM IS LAPW
:E1_0003: E( 1)=    0.5000
             APW+lo
:E1_0003: E( 1)=   -2.6252   E(BOTTOM)=   -2.724   E(TOP)=   -2.526  2  3   172
             LOCAL ORBITAL
:E2_0003: E( 2)=    0.5000   E(BOTTOM)=    0.177   E(TOP)= -200.000  1 -1    94
             APW+lo
:E0_0003: E( 0)=    0.5000
             APW+lo

       K=   0.00000   0.00000   0.00000            1
:RKM  : MATRIX SIZE   185LOs:  48  RKM= 6.64  WEIGHT= 1.00  PGR:    
       EIGENVALUES ARE:
:EIG00001:      -3.1044187   -3.1044187   -3.1044187   -3.1025432   -3.1025432
:EIG00006:      -3.1025432   -2.6081041   -2.6081041   -2.6081041   -2.6003346
:EIG00011:      -2.6003346   -2.6003346    0.1035494    0.3684966    0.3684966
:EIG00016:       0.4344058    0.4344058    0.4344058    0.5846256    0.5846256
:EIG00021:       0.5846256    0.6044837    0.6044837    0.6044837    0.7537344
:EIG00026:       0.7537344    0.7817009    0.7817009    0.7859518    0.7859518
:EIG00031:       0.8446076    0.8446076    0.8446076    1.2952000    1.3632507
:EIG00036:       1.3632507    1.3632507    1.3640692    1.3640692    1.3640692
:EIG00041:       1.4739124    1.4739124    1.4739124    1.5232871    2.0348931
:EIG00046:       2.0348931    2.1066160    2.1854048    2.1854048    2.1854048
 
       ********************************************************

:KPT   :      NUMBER OF K-POINTS:    72
:GAP (global)   :    0.0    Ry =     0.0   eV (metal)
         Bandranges (emin - emax) and occupancy:
:BAN00022:  22    0.527229    0.659168  2.00000000
:BAN00023:  23    0.527229    0.684097  2.00000000
:BAN00024:  24    0.527229    0.692122  2.00000000
:BAN00025:  25    0.665160    0.754593  2.00000000
:BAN00026:  26    0.690968    0.764710  2.00006237
:BAN00027:  27    0.704747    0.781701  1.93582057
:BAN00028:  28    0.717322    0.781701  1.90261894
:BAN00029:  29    0.744829    0.814463  1.56370108
:BAN00030:  30    0.751150    0.814463  0.58329873
:BAN00031:  31    0.767974    0.844608  0.01411395
:BAN00032:  32    0.777031    0.844608  0.00038437
:BAN00033:  33    0.789524    0.865356  0.00000000
:BAN00034:  34    0.818824    1.295200  0.00000000
:BAN00035:  35    0.853533    1.363251  0.00000000
:BAN00036:  36    0.864201    1.363251  0.00000000
:BAN00037:  37    1.308674    1.540697  0.00000000
        Energy to separate low and high energystates:    0.05355


:NOE  : NUMBER OF ELECTRONS          =   58.000

:FER  : F E R M I - ENERGY(TETRAH.M.)=   0.7709447700
:GMA  : POTENTIAL AND CHARGE CUT-OFF  12.00 Ry**.5

:POS001: ATOM    1 X,Y,Z = 0.00000 0.00000 0.00000  MULT= 1  ZZ= 26.000  Fe1       

       LMMAX  5
       LM=   0 0  4 0  4 4  6 0  6 4

:CHA001: TOTAL VALENCE CHARGE INSIDE SPHERE   1 =  13.3034    (RMT=  2.4300 )
:PCS001: PARTIAL CHARGES SPHERE =  1 S,P,D,F,      D-EG,D-T2G 
:QTL001: 0.4773 6.5349 6.2177 0.0547 0.0000 0.0000 0.0000 2.4340 3.7837 0.0000 0.0000 0.0000
        Q-s-low E-s-low   Q-p-low E-p-low   Q-d-low E-d-low   Q-f-low E-f-low
:EPL001:  0.0011 -2.6135    5.9898 -3.1032    0.0027 -2.6091    0.0011 -2.6096
        Q-s-hi  E-s-hi    Q-p-hi  E-p-hi    Q-d-hi  E-d-hi    Q-f-hi  E-f-hi 
:EPH001:  0.4762  0.3472    0.5452  0.5049    6.2150  0.6392    0.0535  0.5845

:POS002: ATOM    2 X,Y,Z = 0.50000 0.00000 0.00000  MULT= 1  ZZ= 26.000  Fe2       

       LMMAX  5
       LM=   0 0  4 0  4 4  6 0  6 4

:CHA002: TOTAL VALENCE CHARGE INSIDE SPHERE   2 =  13.3034    (RMT=  2.4300 )
:PCS002: PARTIAL CHARGES SPHERE =  2 S,P,D,F,      D-EG,D-T2G 
:QTL002: 0.4773 6.5349 6.2177 0.0547 0.0000 0.0000 0.0000 2.4340 3.7837 0.0000 0.0000 0.0000
        Q-s-low E-s-low   Q-p-low E-p-low   Q-d-low E-d-low   Q-f-low E-f-low
:EPL002:  0.0011 -2.6135    5.9898 -3.1032    0.0027 -2.6091    0.0011 -2.6096
        Q-s-hi  E-s-hi    Q-p-hi  E-p-hi    Q-d-hi  E-d-hi    Q-f-hi  E-f-hi 
:EPH002:  0.4762  0.3472    0.5452  0.5049    6.2150  0.6392    0.0535  0.5845

:POS003: ATOM    3 X,Y,Z = 0.25000 0.25000 0.25000  MULT= 2  ZZ= 45.000  Rh1       

       LMMAX  6
       LM=   0 0  4 0  4 4  6 0  6 4 -3 2

:CHA003: TOTAL VALENCE CHARGE INSIDE SPHERE   3 =  13.1938    (RMT=  2.4300 )
:PCS003: PARTIAL CHARGES SPHERE =  3 S,P,D,F,      D-EG,D-T2G 
:QTL003: 0.3765 6.3559 6.4014 0.0478 0.0000 0.0000 0.0000 2.4413 3.9601 0.0000 0.0000 0.0000
        Q-s-low E-s-low   Q-p-low E-p-low   Q-d-low E-d-low   Q-f-low E-f-low
:EPL003:  0.0003 -3.0286    5.9578 -2.6048    0.0008 -3.0391    0.0004 -3.0363
        Q-s-hi  E-s-hi    Q-p-hi  E-p-hi    Q-d-hi  E-d-hi    Q-f-hi  E-f-hi 
:EPH003:  0.3762  0.3663    0.3981  0.5313    6.4006  0.5532    0.0474  0.6246

:CHA  : TOTAL VALENCE CHARGE INSIDE UNIT CELL =      58.000000

:SUM  : SUM OF EIGENVALUES =         -49.362725514


        1.ATOM      Fe1                   5 CORE STATES
:1S 001: 1S                -512.959330044 Ry
:2S 001: 2S                 -58.867786169 Ry
:2PP001: 2P*                -50.571225728 Ry
:2P 001: 2P                 -49.653729611 Ry
:3S 001: 3S                  -5.590121709 Ry

        2.ATOM      Fe2                   5 CORE STATES
:1S 002: 1S                -512.959330052 Ry
:2S 002: 2S                 -58.867786176 Ry
:2PP002: 2P*                -50.571225736 Ry
:2P 002: 2P                 -49.653729618 Ry
:3S 002: 3S                  -5.590121714 Ry

        3.ATOM      Rh1                  10 CORE STATES
:1S 003: 1S               -1691.280461007 Ry
:2S 003: 2S                -244.171810526 Ry
:2PP003: 2P*               -225.981764630 Ry
:2P 003: 2P                -215.352493880 Ry
:3S 003: 3S                 -42.709844819 Ry
:3PP003: 3P*                -35.591722316 Ry
:3P 003: 3P                 -33.763268963 Ry
:3DD003: 3D*                -21.165045745 Ry
:3D 003: 3D                 -20.804474629 Ry
:4S 003: 4S                  -4.953842324 Ry
:CINT001 Core Integral Atom   1   11.999200
:CINT002 Core Integral Atom   2   11.999200
:CINT003 Core Integral Atom   3   29.997254

       DENSITY AT NUCLEUS
        JATOM        VALENCE       SEMI-CORE          CORE           TOTAL
:RTO001:   1        7.048776        0.000000    15301.631004    15308.679780
:RTO002:   2        7.048776        0.000000    15301.631004    15308.679780
:RTO003:   3       24.615544        0.000000   155310.856407   155335.471951
     
       CHARGES OF NEW CHARGE DENSITY
:NTO   : INTERSTITIAL CHARGE =     5.005395
:NPC   : PW Pseudocharge     =    11.534103
:NTO001: CHARGE SPHERE  1    =    25.302646
:NTO002: CHARGE SPHERE  2    =    25.302646
:NTO003: CHARGE SPHERE  3    =    43.191080

:NEC01: NUCLEAR AND ELECTRONIC CHARGE    142.00000   141.99285
     
       CHARGES OF OLD CHARGE DENSITY
:OTO   : INTERSTITIAL CHARGE =     3.832597
:OPC   : PW Pseudocharge     =    13.593090
:OTO001: CHARGE SPHERE  1    =    25.260540
:OTO002: CHARGE SPHERE  2    =    25.260540
:OTO003: CHARGE SPHERE  3    =    43.823162

:NEC02: NUCLEAR AND ELECTRONIC CHARGE    142.00000   142.00000
     
       CONVERGENCE TEST
:DTO001: DIFFERENCE IN SPHERE  1 =  0.5207723
:DTO002: DIFFERENCE IN SPHERE  2 =  0.5207722
:DTO003: DIFFERENCE IN SPHERE  3 =  0.7389190

:DIS  :  CHARGE DISTANCE       ( 0.7389190 for atom    3 spin 1)      0.6298456
 PW Mixed is           49
 
******************************************************
* MULTISECANT MIXING VER9 RELEASE 10.4.0              *
* Slow Mode, cautious                                *
* Fixed density scale                                *
* Regularization       1.000E-04                     *
* Step Trust Radius    0.75000                       *
* Trust Upper Limit    2.000E+00                     *
* Max Number of Memory Steps   12                    *
******************************************************
 
:PWTMP   1.1765E+02  4.5917E+02  3.5807E+02
:PLANE:  PW TOTAL      2.0030 DISTAN   5.54E-01  2.76E+01 %
:CHARG:  CLM/ATOM    299.8792 DISTAN   4.31E-01  1.44E-01 %
 
Step History
        DMIX         DMIXT        Red     Pred      Trust     Lambda    MagRel    MagAbs     Beta
  1   3.5000E-02   3.5000E-02 -1.00E+00  1.00E+00 -1.00E+01  1.00E+00  3.50E-02  3.50E-02  1.00E+00
  2   2.5000E-02   2.5000E-02 -1.00E+00  1.00E+00 -1.00E+01  1.00E+00  2.50E-02  5.93E-02  1.00E+00
:JACOBIANS    4.825E-01   2.199E-03
  
:TRUST:  Step 3.74E-02  Charge 7.50E-02 (e) CTO  2.50E-01 (e) PW  3.50E-01 (e)
:DIRM :  MEMORY  1/12 SCALE   1.000
:MIX  :   PRATT  REGULARIZATION:  1.00E-04 GREED: 0.03743  Expand 1.50  0.0374                
     
       CHARGES OF MIXED CHARGE DENSITY
:CTO   : INTERSTITIAL CHARGE =     3.843204
:CPC   : PW Pseudocharge     =    11.822978
:CTO001: CHARGE SPHERE  1    =    25.261765
:CTO002: CHARGE SPHERE  2    =    25.261765
:CTO003: CHARGE SPHERE  3    =    43.816633

:NEC03: NUCLEAR AND ELECTRONIC CHARGE    142.00000   142.00000

PW CHANGE     H    K    L      Current       Change    Residue
:PTO001:      0    0    0  4.37516881E-02 -4.914E-03 -2.409E-03
:PTO003:      0    0   -2 -1.74227173E-02  7.705E-03  1.374E-02
:PTO004:      0   -2   -2  1.24625063E-03 -3.403E-02 -3.917E-02
:PTO006:     -2   -2   -2  6.41264813E-03  5.075E-03  2.223E-03
:PTO007:      0    0   -4 -2.08647281E-02 -8.929E-03 -5.266E-04
:PTO009:      0   -2   -4  2.46075410E-02  6.503E-03 -7.631E-03
:PTO010:     -2   -2   -4 -6.05238902E-02 -1.651E-02  2.425E-02
:PTO013:      0   -4   -4 -1.48243829E-02 -3.006E-03  1.073E-02
:PTO015:     -2   -4   -4  5.84763960E-03 -8.984E-05 -4.679E-03
:PTO016:      0    0   -6  1.47278721E-03 -1.972E-05 -9.390E-04
:PTO017:      0   -2   -6 -8.97585143E-03 -9.151E-04  8.589E-03
:PTO019:     -2   -2   -6  6.48077500E-04 -8.201E-04 -1.240E-03

:ENE  : ********** TOTAL ENERGY IN Ry =       -24232.21638841

 Flat Integration
 New Mode for Coulomb Integral
 Consistent 3/8+Simpson combinations
 Extension of core to zero
 LDM version in phi
 Fifth-order quadrature in outwin


            ---------
:ITE003:  3. ITERATION
            ---------

:NATO :    3 INDEPENDENT AND    4 TOTAL ATOMS IN UNITCELL
       SUBSTANCE: FeRh                                                        

       LATTICE                      = F   
:POT  : POTENTIAL OPTION EX_PBE EC_PBE VX_PBE VC_PBE
:LAT  : LATTICE CONSTANTS= 11.27222 11.27222 11.27222    1.571    1.571    1.571
:VOL  : UNIT CELL VOLUME =     358.07036
       MODE OF CALCULATION IS       = RELA
       NON-SPINPOLARIZED CALCULATION
:IFFT  : FFT-parameters:   90   90   90 Factor: 2.00


   CONVERGENCE PARAMETER FOR PSEUDOCHARGE: NCON=  9
   MAXIMAL VALUE OF RMT(JATOM)*ABSK(NKK) : RK  =29.05063


:VKCOUL :  VK-COUL convergence: 0.534E-07
       ATOMNUMBER=  1 Fe1        VCOUL-ZERO =  0.62086E+00
       ATOMNUMBER=  2 Fe2        VCOUL-ZERO =  0.62086E+00
       ATOMNUMBER=  3 Rh1        VCOUL-ZERO =  0.58932E+00
:FIT001: LUSE= 13 SIGMA OF V-XC FIT FOR ATOM  1  0.5018406E-02
:FIT001: LUSE= 13 SIGMA OF V-XC FIT FOR ATOM  1  0.5018406E-02
:FIT002: LUSE= 13 SIGMA OF V-XC FIT FOR ATOM  2  0.5018406E-02
:FIT002: LUSE= 13 SIGMA OF V-XC FIT FOR ATOM  2  0.5018406E-02
:FIT003: LUSE= 13 SIGMA OF V-XC FIT FOR ATOM  3  0.1168810E-02
:FIT003: LUSE= 13 SIGMA OF V-XC FIT FOR ATOM  3  0.1168810E-02
:DEN  : DENSITY INTEGRAL  =         -9880.76940122   (Ry)
       ELS_POTENTIAL_AT Z=0 and Z=0.5:  -0.21013  -0.21013
       ELS_POTENTIAL_AT Y=0 and Y=0.5:   0.00000   0.00000
:VZERO:v0,v0c,v0x  -0.74448  -0.21013  -0.53436 v5,v5c,v5x  -0.74448  -0.21013  -0.53436
:VZERY:v0,v0c,v0x  -0.77946   0.00000  -0.77946 v5,v5c,v5x  -0.77946   0.00000  -0.77946
:VZERX:v0,v0c,v0x  -0.77946   0.00000  -0.77946 v5,v5c,v5x  -0.77946   0.00000  -0.77946
:LMAX-WF:   10   Non-Spherical LMAX:   4

          ATOMIC SPHERE DEPENDENT PARAMETERS FOR ATOM  Fe1       
:e__0001: OVERALL ENERGY PARAMETER IS    0.5473
          OVERALL BASIS SET ON ATOM IS LAPW
:E1_0001: E( 1)=    0.5473
             APW+lo
:E1_0001: E( 1)=   -3.1222   E(BOTTOM)=   -3.155   E(TOP)=   -3.089  1  2   184
             LOCAL ORBITAL
:E2_0001: E( 2)=    0.6551   E(BOTTOM)=    0.407   E(TOP)=    0.903  0  1   127
             APW+lo
:E0_0001: E( 0)=    0.5473
             APW+lo

          ATOMIC SPHERE DEPENDENT PARAMETERS FOR ATOM  Fe2       
:e__0002: OVERALL ENERGY PARAMETER IS    0.5473
          OVERALL BASIS SET ON ATOM IS LAPW
:E1_0002: E( 1)=    0.5473
             APW+lo
:E1_0002: E( 1)=   -3.1222   E(BOTTOM)=   -3.155   E(TOP)=   -3.089  1  2   184
             LOCAL ORBITAL
:E2_0002: E( 2)=    0.6551   E(BOTTOM)=    0.407   E(TOP)=    0.903  0  1   127
             APW+lo
:E0_0002: E( 0)=    0.5473
             APW+lo

          ATOMIC SPHERE DEPENDENT PARAMETERS FOR ATOM  Rh1       
:e__0003: OVERALL ENERGY PARAMETER IS    0.5473
          OVERALL BASIS SET ON ATOM IS LAPW
:E1_0003: E( 1)=    0.5473
             APW+lo
:E1_0003: E( 1)=   -2.6410   E(BOTTOM)=   -2.740   E(TOP)=   -2.542  2  3   166
             LOCAL ORBITAL
:E2_0003: E( 2)=    0.5473   E(BOTTOM)=    0.164   E(TOP)= -200.000  1 -1    94
             APW+lo
:E0_0003: E( 0)=    0.5473
             APW+lo

       K=   0.00000   0.00000   0.00000            1
:RKM  : MATRIX SIZE   185LOs:  48  RKM= 6.64  WEIGHT= 1.00  PGR:    
       EIGENVALUES ARE:
:EIG00001:      -3.1160305   -3.1160305   -3.1160305   -3.1141774   -3.1141774
:EIG00006:      -3.1141774   -2.6239221   -2.6239221   -2.6239221   -2.6161874
:EIG00011:      -2.6161874   -2.6161874    0.0932513    0.3564447    0.3564447
:EIG00016:       0.4219026    0.4219026    0.4219026    0.5736724    0.5736724
:EIG00021:       0.5736724    0.5916621    0.5916621    0.5916621    0.7415221
:EIG00026:       0.7415221    0.7704232    0.7704232    0.7712421    0.7712421
:EIG00031:       0.8317706    0.8317706    0.8317706    1.2849138    1.3520893
:EIG00036:       1.3520893    1.3520893    1.3534543    1.3534543    1.3534543
:EIG00041:       1.4601024    1.4601024    1.4601024    1.5114027    2.0200868
:EIG00046:       2.0200868    2.0950605    2.1747518    2.1747518    2.1747518
 
       ********************************************************

:KPT   :      NUMBER OF K-POINTS:    72
:GAP (global)   :    0.0    Ry =     0.0   eV (metal)
         Bandranges (emin - emax) and occupancy:
:BAN00022:  22    0.514690    0.646057  2.00000000
:BAN00023:  23    0.515040    0.671474  2.00000000
:BAN00024:  24    0.515040    0.680814  2.00000000
:BAN00025:  25    0.653659    0.742313  2.00000000
:BAN00026:  26    0.679647    0.752436  2.00003332
:BAN00027:  27    0.693250    0.770423  1.94591469
:BAN00028:  28    0.705324    0.770423  1.90847568
:BAN00029:  29    0.733022    0.802148  1.55143710
:BAN00030:  30    0.739397    0.802148  0.57902131
:BAN00031:  31    0.755479    0.831771  0.01475113
:BAN00032:  32    0.765761    0.831771  0.00036677
:BAN00033:  33    0.777206    0.852524  0.00000000
:BAN00034:  34    0.806436    1.284914  0.00000000
:BAN00035:  35    0.840259    1.352089  0.00000000
:BAN00036:  36    0.850698    1.352089  0.00000000
:BAN00037:  37    1.296331    1.527752  0.00000000
        Energy to separate low and high energystates:    0.04325


:NOE  : NUMBER OF ELECTRONS          =   58.000

:FER  : F E R M I - ENERGY(TETRAH.M.)=   0.7585831660
:GMA  : POTENTIAL AND CHARGE CUT-OFF  12.00 Ry**.5

:POS001: ATOM    1 X,Y,Z = 0.00000 0.00000 0.00000  MULT= 1  ZZ= 26.000  Fe1       

       LMMAX  5
       LM=   0 0  4 0  4 4  6 0  6 4

:CHA001: TOTAL VALENCE CHARGE INSIDE SPHERE   1 =  13.2761    (RMT=  2.4300 )
:PCS001: PARTIAL CHARGES SPHERE =  1 S,P,D,F,      D-EG,D-T2G 
:QTL001: 0.4760 6.5316 6.1951 0.0544 0.0000 0.0000 0.0000 2.4259 3.7692 0.0000 0.0000 0.0000
        Q-s-low E-s-low   Q-p-low E-p-low   Q-d-low E-d-low   Q-f-low E-f-low
:EPL001:  0.0011 -2.6293    5.9898 -3.1148    0.0027 -2.6249    0.0011 -2.6254
        Q-s-hi  E-s-hi    Q-p-hi  E-p-hi    Q-d-hi  E-d-hi    Q-f-hi  E-f-hi 
:EPH001:  0.4749  0.3362    0.5418  0.4929    6.1924  0.6278    0.0533  0.5714

:POS002: ATOM    2 X,Y,Z = 0.50000 0.00000 0.00000  MULT= 1  ZZ= 26.000  Fe2       

       LMMAX  5
       LM=   0 0  4 0  4 4  6 0  6 4

:CHA002: TOTAL VALENCE CHARGE INSIDE SPHERE   2 =  13.2761    (RMT=  2.4300 )
:PCS002: PARTIAL CHARGES SPHERE =  2 S,P,D,F,      D-EG,D-T2G 
:QTL002: 0.4760 6.5316 6.1951 0.0544 0.0000 0.0000 0.0000 2.4259 3.7692 0.0000 0.0000 0.0000
        Q-s-low E-s-low   Q-p-low E-p-low   Q-d-low E-d-low   Q-f-low E-f-low
:EPL002:  0.0011 -2.6293    5.9898 -3.1148    0.0027 -2.6249    0.0011 -2.6254
        Q-s-hi  E-s-hi    Q-p-hi  E-p-hi    Q-d-hi  E-d-hi    Q-f-hi  E-f-hi 
:EPH002:  0.4749  0.3362    0.5418  0.4929    6.1924  0.6278    0.0533  0.5714

:POS003: ATOM    3 X,Y,Z = 0.25000 0.25000 0.25000  MULT= 2  ZZ= 45.000  Rh1       

       LMMAX  6
       LM=   0 0  4 0  4 4  6 0  6 4 -3 2

:CHA003: TOTAL VALENCE CHARGE INSIDE SPHERE   3 =  13.2295    (RMT=  2.4300 )
:PCS003: PARTIAL CHARGES SPHERE =  3 S,P,D,F,      D-EG,D-T2G 
:QTL003: 0.3765 6.3548 6.4385 0.0475 0.0000 0.0000 0.0000 2.4619 3.9765 0.0000 0.0000 0.0000
        Q-s-low E-s-low   Q-p-low E-p-low   Q-d-low E-d-low   Q-f-low E-f-low
:EPL003:  0.0003 -3.0413    5.9580 -2.6207    0.0008 -3.0517    0.0004 -3.0490
        Q-s-hi  E-s-hi    Q-p-hi  E-p-hi    Q-d-hi  E-d-hi    Q-f-hi  E-f-hi 
:EPH003:  0.3762  0.3555    0.3969  0.5201    6.4376  0.5404    0.0471  0.6130

:CHA  : TOTAL VALENCE CHARGE INSIDE UNIT CELL =      58.000000

:SUM  : SUM OF EIGENVALUES =         -50.101485541


        1.ATOM      Fe1                   5 CORE STATES
:1S 001: 1S                -512.973044664 Ry
:2S 001: 2S                 -58.881326358 Ry
:2PP001: 2P*                -50.584816448 Ry
:2P 001: 2P                 -49.667315199 Ry
:3S 001: 3S                  -5.601887638 Ry

        2.ATOM      Fe2                   5 CORE STATES
:1S 002: 1S                -512.973044675 Ry
:2S 002: 2S                 -58.881326368 Ry
:2PP002: 2P*                -50.584816458 Ry
:2P 002: 2P                 -49.667315209 Ry
:3S 002: 3S                  -5.601887645 Ry

        3.ATOM      Rh1                  10 CORE STATES
:1S 003: 1S               -1691.301471514 Ry
:2S 003: 2S                -244.192495936 Ry
:2PP003: 2P*               -226.002545715 Ry
:2P 003: 2P                -215.373253753 Ry
:3S 003: 3S                 -42.729091305 Ry
:3PP003: 3P*                -35.611008355 Ry
:3P 003: 3P                 -33.782502562 Ry
:3DD003: 3D*                -21.184435551 Ry
:3D 003: 3D                 -20.823846181 Ry
:4S 003: 4S                  -4.970219716 Ry
:CINT001 Core Integral Atom   1   11.999201
:CINT002 Core Integral Atom   2   11.999201
:CINT003 Core Integral Atom   3   29.997264

       DENSITY AT NUCLEUS
        JATOM        VALENCE       SEMI-CORE          CORE           TOTAL
:RTO001:   1        7.019155        0.000000    15301.669821    15308.688976
:RTO002:   2        7.019155        0.000000    15301.669821    15308.688976
:RTO003:   3       24.590343        0.000000   155311.139413   155335.729756
     
       CHARGES OF NEW CHARGE DENSITY
:NTO   : INTERSTITIAL CHARGE =     4.988688
:NPC   : PW Pseudocharge     =    11.518498
:NTO001: CHARGE SPHERE  1    =    25.275280
:NTO002: CHARGE SPHERE  2    =    25.275280
:NTO003: CHARGE SPHERE  3    =    43.226810

:NEC01: NUCLEAR AND ELECTRONIC CHARGE    142.00000   141.99287
     
       CHARGES OF OLD CHARGE DENSITY
:OTO   : INTERSTITIAL CHARGE =     3.843204
:OPC   : PW Pseudocharge     =    11.822978
:OTO001: CHARGE SPHERE  1    =    25.261765
:OTO002: CHARGE SPHERE  2    =    25.261765
:OTO003: CHARGE SPHERE  3    =    43.816633

:NEC02: NUCLEAR AND ELECTRONIC CHARGE    142.00000   142.00000
     
       CONVERGENCE TEST
:DTO001: DIFFERENCE IN SPHERE  1 =  0.5325831
:DTO002: DIFFERENCE IN SPHERE  2 =  0.5325830
:DTO003: DIFFERENCE IN SPHERE  3 =  0.6951849

:DIS  :  CHARGE DISTANCE       ( 0.6951849 for atom    3 spin 1)      0.6138840
 PW Mixed is           49
 
******************************************************
* MULTISECANT MIXING VER9 RELEASE 10.4.0              *
* Standard Mode with controls                        *
* Fixed density scale                                *
* Regularization       1.000E-04                     *
* Trust Upper Limit    5.000E+00                     *
* Max Number of Memory Steps    8                    *
******************************************************
 
:PWTMP   1.1765E+02  4.5917E+02  3.5807E+02
:PLANE:  PW TOTAL      1.8228 DISTAN   4.32E-01  2.37E+01 %
:CHARG:  CLM/ATOM    299.8784 DISTAN   4.17E-01  1.39E-01 %
 
Step History
        DMIX         DMIXT        Red     Pred      Trust     Lambda    MagRel    MagAbs     Beta
  1   3.5000E-02   3.5000E-02 -1.00E+00  1.00E+00 -1.00E+01  1.00E+00  3.50E-02  3.50E-02  1.00E+00
  2   2.5000E-02   2.5000E-02  5.92E-01  1.00E+00 -1.00E+01  1.00E+00  2.50E-02  5.93E-02  1.00E+00
  3   3.7434E-02   3.7434E-02 -1.00E+00  1.00E+00 -1.00E+01  1.00E+00  3.74E-02  5.26E-02  1.00E+00
:JACOBIANS    7.348E-01   1.983E-03
  
:NORMS:  1/Froebius, Min, Max, Used   0.9865E+00  0.4946E+00  0.9892E+00  0.9867E+00
:INFO :  Number of Memory Steps    2 Skipping    0
:INFO :  SLambda=    0.1511293476  Max    0.1511293476
:PREDicted Charge, CTotal, PW Trust    5.918E-03   9.615E-03   5.240E-01
:PREDicted DMix, Beta, BLim   7.4665E-02  8.7087E-01  4.1141E-01

Eigenvalues, unscaled except for SY+YY
   #     SY Real        SY Imag          SS             YY         SY+YY Real      SY+YY Imag
   1  -6.994405E-15   0.000000E+00   1.946370E+00   1.999149E+00   8.528227E-04   0.000000E+00
   2   1.952832E+00   0.000000E+00   1.110223E-16   8.514335E-04   2.294277E+00   0.000000E+00
 
:INFO :  Singular value  2.294E+00 Weight  1.000E+00 Projection  1.509E-02
:INFO :  Singular value  8.528E-04 Weight  9.479E-01 Projection -1.393E+01
:RANK :  ACTIVE   1.95/2  =  97.40 % ; YY RANK   1.95/2  =  97.39 %
 
:DLIM :  Beta Active  9.031E-01
:BLIM :  VZERO Control Off
:TRUST:  Step 2.53E-01  Charge 7.50E-02 (e) CTO  2.50E-01 (e) PW  3.85E-01 (e)
:DIRM :  MEMORY  2/8  SCALE   1.000 RED  0.94 PRED  1.00 NEXT  0.95 BETA  0.90
:TRAVE:  Charge 2.64E-02 (e) CTO  6.14E-02 (e) PW  7.68E-02 (e)
:DIRP :  |MSR1|= 6.300E-02 |PRATT|= 4.316E-01 ANGLE=  52.5 DEGREES
:DIRQ :  |MSR1|= 6.277E-02 |PRATT|= 1.252E+00 ANGLE=  19.3 DEGREES
:DIRT :  |MSR1|= 8.894E-02 |PRATT|= 1.324E+00 ANGLE=  39.6 DEGREES
:MIX  :   MSD1   REGULARIZATION:  2.00E-04 GREED: 0.05419  Newton 1.00  0.0672                
     
       CHARGES OF MIXED CHARGE DENSITY
:CTO   : INTERSTITIAL CHARGE =     3.904570
:CPC   : PW Pseudocharge     =    11.995275
:CTO001: CHARGE SPHERE  1    =    25.257521
:CTO002: CHARGE SPHERE  2    =    25.257521
:CTO003: CHARGE SPHERE  3    =    43.790194

:NEC03: NUCLEAR AND ELECTRONIC CHARGE    142.00000   142.00000

PW CHANGE     H    K    L      Current       Change    Residue
:PTO001:      0    0    0  4.44042467E-02  6.526E-04  2.415E-03
:PTO002:     -1   -1   -1 -1.59818393E-10 -1.598E-10 -1.414E-10
:PTO003:      0    0   -2 -1.79405863E-02 -5.179E-04  5.866E-03
:PTO004:      0   -2   -2  4.60701500E-03  3.361E-03 -4.956E-03
:PTO005:     -1   -1   -3  9.97920791E-12  9.978E-12 -4.622E-11
:PTO006:     -2   -2   -2  5.71759819E-03 -6.950E-04 -2.813E-03
:PTO007:      0    0   -4 -1.94510223E-02  1.414E-03  8.420E-03
:PTO008:     -1   -3   -3  2.11774864E-10  2.118E-10  2.418E-10
:PTO009:      0   -2   -4  2.31514034E-02 -1.456E-03 -1.399E-02
:PTO010:     -2   -2   -4 -5.65445442E-02  3.979E-03  4.070E-02
:PTO011:     -3   -3   -3  7.71419116E-11  7.714E-11  1.560E-11
:PTO012:     -1   -1   -5 -9.91281528E-11 -9.913E-11  2.549E-11

:ENE  : ********** TOTAL ENERGY IN Ry =       -24232.20872817

 Flat Integration
 New Mode for Coulomb Integral
 Consistent 3/8+Simpson combinations
 Extension of core to zero
 LDM version in phi
 Fifth-order quadrature in outwin


            ---------
:ITE004:  4. ITERATION
            ---------

:NATO :    3 INDEPENDENT AND    4 TOTAL ATOMS IN UNITCELL
       SUBSTANCE: FeRh                                                        

       LATTICE                      = F   
:POT  : POTENTIAL OPTION EX_PBE EC_PBE VX_PBE VC_PBE
:LAT  : LATTICE CONSTANTS= 11.27222 11.27222 11.27222    1.571    1.571    1.571
:VOL  : UNIT CELL VOLUME =     358.07036
       MODE OF CALCULATION IS       = RELA
       NON-SPINPOLARIZED CALCULATION
:IFFT  : FFT-parameters:   90   90   90 Factor: 2.00


   CONVERGENCE PARAMETER FOR PSEUDOCHARGE: NCON=  9
   MAXIMAL VALUE OF RMT(JATOM)*ABSK(NKK) : RK  =29.05063


:VKCOUL :  VK-COUL convergence: 0.535E-07
       ATOMNUMBER=  1 Fe1        VCOUL-ZERO =  0.62574E+00
       ATOMNUMBER=  2 Fe2        VCOUL-ZERO =  0.62574E+00
       ATOMNUMBER=  3 Rh1        VCOUL-ZERO =  0.59193E+00
:FIT001: LUSE= 13 SIGMA OF V-XC FIT FOR ATOM  1  0.4670133E-02
:FIT001: LUSE= 13 SIGMA OF V-XC FIT FOR ATOM  1  0.4670133E-02
:FIT002: LUSE= 13 SIGMA OF V-XC FIT FOR ATOM  2  0.4670134E-02
:FIT002: LUSE= 13 SIGMA OF V-XC FIT FOR ATOM  2  0.4670134E-02
:FIT003: LUSE= 13 SIGMA OF V-XC FIT FOR ATOM  3  0.9331972E-03
:FIT003: LUSE= 13 SIGMA OF V-XC FIT FOR ATOM  3  0.9331972E-03
:DEN  : DENSITY INTEGRAL  =         -9877.25290641   (Ry)
       ELS_POTENTIAL_AT Z=0 and Z=0.5:  -0.20515  -0.20515
       ELS_POTENTIAL_AT Y=0 and Y=0.5:   0.00000   0.00000
:VZERO:v0,v0c,v0x  -0.75608  -0.20515  -0.55093 v5,v5c,v5x  -0.75608  -0.20515  -0.55093
:VZERY:v0,v0c,v0x  -0.78553   0.00000  -0.78553 v5,v5c,v5x  -0.78553   0.00000  -0.78553
:VZERX:v0,v0c,v0x  -0.78553   0.00000  -0.78553 v5,v5c,v5x  -0.78553   0.00000  -0.78553
:LMAX-WF:   10   Non-Spherical LMAX:   4

          ATOMIC SPHERE DEPENDENT PARAMETERS FOR ATOM  Fe1       
:e__0001: OVERALL ENERGY PARAMETER IS    0.5548
          OVERALL BASIS SET ON ATOM IS LAPW
:E1_0001: E( 1)=    0.5548
             APW+lo
:E1_0001: E( 1)=   -3.1423   E(BOTTOM)=   -3.175   E(TOP)=   -3.109  1  2   186
             LOCAL ORBITAL
:E2_0001: E( 2)=    0.6399   E(BOTTOM)=    0.395   E(TOP)=    0.885  0  1   121
             APW+lo
:E0_0001: E( 0)=    0.5548
             APW+lo

          ATOMIC SPHERE DEPENDENT PARAMETERS FOR ATOM  Fe2       
:e__0002: OVERALL ENERGY PARAMETER IS    0.5548
          OVERALL BASIS SET ON ATOM IS LAPW
:E1_0002: E( 1)=    0.5548
             APW+lo
:E1_0002: E( 1)=   -3.1423   E(BOTTOM)=   -3.175   E(TOP)=   -3.109  1  2   188
             LOCAL ORBITAL
:E2_0002: E( 2)=    0.6399   E(BOTTOM)=    0.395   E(TOP)=    0.885  0  1   122
             APW+lo
:E0_0002: E( 0)=    0.5548
             APW+lo

          ATOMIC SPHERE DEPENDENT PARAMETERS FOR ATOM  Rh1       
:e__0003: OVERALL ENERGY PARAMETER IS    0.5548
          OVERALL BASIS SET ON ATOM IS LAPW
:E1_0003: E( 1)=    0.5548
             APW+lo
:E1_0003: E( 1)=   -2.6594   E(BOTTOM)=   -2.757   E(TOP)=   -2.561  2  3   169
             LOCAL ORBITAL
:E2_0003: E( 2)=    0.5548   E(BOTTOM)=    0.154   E(TOP)= -200.000  1 -1    96
             APW+lo
:E0_0003: E( 0)=    0.5548
             APW+lo

       K=   0.00000   0.00000   0.00000            1
:RKM  : MATRIX SIZE   185LOs:  48  RKM= 6.64  WEIGHT= 1.00  PGR:    
       EIGENVALUES ARE:
:EIG00001:      -3.1362582   -3.1362582   -3.1362582   -3.1344490   -3.1344490
:EIG00006:      -3.1344490   -2.6424398   -2.6424398   -2.6424398   -2.6348324
:EIG00011:      -2.6348324   -2.6348324    0.0913213    0.3476878    0.3476878
:EIG00016:       0.4136388    0.4136388    0.4136388    0.5623191    0.5623191
:EIG00021:       0.5623191    0.5785432    0.5785432    0.5785432    0.7262850
:EIG00026:       0.7262850    0.7535852    0.7535852    0.7569909    0.7569909
:EIG00031:       0.8151559    0.8151559    0.8151559    1.2819769    1.3430113
:EIG00036:       1.3430113    1.3430113    1.3505563    1.3505563    1.3505563
:EIG00041:       1.4518117    1.4518117    1.4518117    1.5067790    2.0101903
:EIG00046:       2.0101903    2.0906678    2.1736394    2.1736394    2.1736394
 
       ********************************************************

:KPT   :      NUMBER OF K-POINTS:    72
:GAP (global)   :    0.0    Ry =     0.0   eV (metal)
         Bandranges (emin - emax) and occupancy:
:BAN00022:  22    0.503521    0.632504  2.00000000
:BAN00023:  23    0.504664    0.657002  2.00000000
:BAN00024:  24    0.504664    0.666404  2.00000000
:BAN00025:  25    0.647729    0.726954  2.00000000
:BAN00026:  26    0.667960    0.736991  2.00004844
:BAN00027:  27    0.678834    0.753585  1.93932563
:BAN00028:  28    0.691139    0.753585  1.90465631
:BAN00029:  29    0.717640    0.785833  1.56297689
:BAN00030:  30    0.724058    0.785833  0.57932549
:BAN00031:  31    0.740167    0.815156  0.01334519
:BAN00032:  32    0.749018    0.815156  0.00032205
:BAN00033:  33    0.761564    0.835540  0.00000000
:BAN00034:  34    0.791616    1.281977  0.00000000
:BAN00035:  35    0.829755    1.343011  0.00000000
:BAN00036:  36    0.837582    1.343011  0.00000000
:BAN00037:  37    1.287560    1.519705  0.00000000
        Energy to separate low and high energystates:    0.04132


:NOE  : NUMBER OF ELECTRONS          =   58.000

:FER  : F E R M I - ENERGY(TETRAH.M.)=   0.7430205311
:GMA  : POTENTIAL AND CHARGE CUT-OFF  12.00 Ry**.5

:POS001: ATOM    1 X,Y,Z = 0.00000 0.00000 0.00000  MULT= 1  ZZ= 26.000  Fe1       

       LMMAX  5
       LM=   0 0  4 0  4 4  6 0  6 4

:CHA001: TOTAL VALENCE CHARGE INSIDE SPHERE   1 =  13.3119    (RMT=  2.4300 )
:PCS001: PARTIAL CHARGES SPHERE =  1 S,P,D,F,      D-EG,D-T2G 
:QTL001: 0.4718 6.5195 6.2487 0.0532 0.0000 0.0000 0.0000 2.4563 3.7923 0.0000 0.0000 0.0000
        Q-s-low E-s-low   Q-p-low E-p-low   Q-d-low E-d-low   Q-f-low E-f-low
:EPL001:  0.0011 -2.6478    5.9900 -3.1351    0.0026 -2.6434    0.0011 -2.6439
        Q-s-hi  E-s-hi    Q-p-hi  E-p-hi    Q-d-hi  E-d-hi    Q-f-hi  E-f-hi 
:EPH001:  0.4707  0.3313    0.5296  0.4847    6.2460  0.6145    0.0521  0.5596

:POS002: ATOM    2 X,Y,Z = 0.50000 0.00000 0.00000  MULT= 1  ZZ= 26.000  Fe2       

       LMMAX  5
       LM=   0 0  4 0  4 4  6 0  6 4

:CHA002: TOTAL VALENCE CHARGE INSIDE SPHERE   2 =  13.3119    (RMT=  2.4300 )
:PCS002: PARTIAL CHARGES SPHERE =  2 S,P,D,F,      D-EG,D-T2G 
:QTL002: 0.4718 6.5195 6.2487 0.0532 0.0000 0.0000 0.0000 2.4563 3.7923 0.0000 0.0000 0.0000
        Q-s-low E-s-low   Q-p-low E-p-low   Q-d-low E-d-low   Q-f-low E-f-low
:EPL002:  0.0011 -2.6478    5.9900 -3.1351    0.0026 -2.6434    0.0011 -2.6439
        Q-s-hi  E-s-hi    Q-p-hi  E-p-hi    Q-d-hi  E-d-hi    Q-f-hi  E-f-hi 
:EPH002:  0.4707  0.3313    0.5296  0.4847    6.2460  0.6145    0.0521  0.5596

:POS003: ATOM    3 X,Y,Z = 0.25000 0.25000 0.25000  MULT= 2  ZZ= 45.000  Rh1       

       LMMAX  6
       LM=   0 0  4 0  4 4  6 0  6 4 -3 2

:CHA003: TOTAL VALENCE CHARGE INSIDE SPHERE   3 =  13.2350    (RMT=  2.4300 )
:PCS003: PARTIAL CHARGES SPHERE =  3 S,P,D,F,      D-EG,D-T2G 
:QTL003: 0.3734 6.3457 6.4577 0.0461 0.0000 0.0000 0.0000 2.4746 3.9831 0.0000 0.0000 0.0000
        Q-s-low E-s-low   Q-p-low E-p-low   Q-d-low E-d-low   Q-f-low E-f-low
:EPL003:  0.0003 -3.0615    5.9586 -2.6392    0.0008 -3.0719    0.0004 -3.0691
        Q-s-hi  E-s-hi    Q-p-hi  E-p-hi    Q-d-hi  E-d-hi    Q-f-hi  E-f-hi 
:EPH003:  0.3731  0.3498    0.3871  0.5113    6.4569  0.5291    0.0457  0.6001

:CHA  : TOTAL VALENCE CHARGE INSIDE UNIT CELL =      58.000000

:SUM  : SUM OF EIGENVALUES =         -50.932692768


        1.ATOM      Fe1                   5 CORE STATES
:1S 001: 1S                -513.012018853 Ry
:2S 001: 2S                 -58.918734678 Ry
:2PP001: 2P*                -50.622672716 Ry
:2P 001: 2P                 -49.705126309 Ry
:3S 001: 3S                  -5.623433822 Ry

        2.ATOM      Fe2                   5 CORE STATES
:1S 002: 1S                -513.012018633 Ry
:2S 002: 2S                 -58.918734462 Ry
:2PP002: 2P*                -50.622672498 Ry
:2P 002: 2P                 -49.705126092 Ry
:3S 002: 3S                  -5.623433667 Ry

        3.ATOM      Rh1                  10 CORE STATES
:1S 003: 1S               -1691.335440030 Ry
:2S 003: 2S                -244.225607683 Ry
:2PP003: 2P*               -226.035914115 Ry
:2P 003: 2P                -215.406564472 Ry
:3S 003: 3S                 -42.758137791 Ry
:3PP003: 3P*                -35.640164364 Ry
:3P 003: 3P                 -33.811510754 Ry
:3DD003: 3D*                -21.213887335 Ry
:3D 003: 3D                 -20.853246339 Ry
:4S 003: 4S                  -4.990630508 Ry
:CINT001 Core Integral Atom   1   11.999214
:CINT002 Core Integral Atom   2   11.999214
:CINT003 Core Integral Atom   3   29.997297

       DENSITY AT NUCLEUS
        JATOM        VALENCE       SEMI-CORE          CORE           TOTAL
:RTO001:   1        6.940003        0.000000    15302.025291    15308.965294
:RTO002:   2        6.940003        0.000000    15302.025289    15308.965293
:RTO003:   3       24.348962        0.000000   155312.027832   155336.376794
     
       CHARGES OF NEW CHARGE DENSITY
:NTO   : INTERSTITIAL CHARGE =     4.906237
:NPC   : PW Pseudocharge     =    11.383218
:NTO001: CHARGE SPHERE  1    =    25.311076
:NTO002: CHARGE SPHERE  2    =    25.311067
:NTO003: CHARGE SPHERE  3    =    43.232289

:NEC01: NUCLEAR AND ELECTRONIC CHARGE    142.00000   141.99296
     
       CHARGES OF OLD CHARGE DENSITY
:OTO   : INTERSTITIAL CHARGE =     3.904570
:OPC   : PW Pseudocharge     =    11.995275
:OTO001: CHARGE SPHERE  1    =    25.257521
:OTO002: CHARGE SPHERE  2    =    25.257521
:OTO003: CHARGE SPHERE  3    =    43.790194

:NEC02: NUCLEAR AND ELECTRONIC CHARGE    142.00000   142.00000
     
       CONVERGENCE TEST
:DTO001: DIFFERENCE IN SPHERE  1 =  0.3906722
:DTO002: DIFFERENCE IN SPHERE  2 =  0.3906810
:DTO003: DIFFERENCE IN SPHERE  3 =  0.6297609

:DIS  :  CHARGE DISTANCE       ( 0.6297609 for atom    3 spin 1)      0.5102188
 PW Mixed is           49
 
******************************************************
* MULTISECANT MIXING VER9 RELEASE 10.4.0              *
* Standard Mode with controls                        *
* Fixed density scale                                *
* Regularization       1.000E-04                     *
* Trust Upper Limit    5.000E+00                     *
* Max Number of Memory Steps    8                    *
******************************************************
 
:PWTMP   1.1765E+02  4.5917E+02  3.5807E+02
:PLANE:  PW TOTAL      1.8332 DISTAN   3.92E-01  2.14E+01 %
:CHARG:  CLM/ATOM    299.8756 DISTAN   3.54E-01  1.18E-01 %
 
Step History
        DMIX         DMIXT        Red     Pred      Trust     Lambda    MagRel    MagAbs     Beta
  1   3.5000E-02   3.5000E-02 -1.00E+00  1.00E+00 -1.00E+01  1.00E+00  3.50E-02  3.50E-02  1.00E+00
  2   2.5000E-02   2.5000E-02  5.92E-01  1.00E+00 -1.00E+01  1.00E+00  2.50E-02  5.93E-02  1.00E+00
  3   3.7434E-02   3.7434E-02  9.41E-01  1.00E+00 -1.00E+01  1.51E-01  3.74E-02  5.26E-02  1.00E+00
  4   5.4191E-02   5.4191E-02 -1.00E+00  9.47E-01  2.53E-01  1.00E+00  6.72E-02  8.89E-02  9.03E-01
:JACOBIANS    8.664E-01   1.268E-01
  
:NORMS:  1/Froebius, Min, Max, Used   0.7877E+00  0.4162E+00  0.9892E+00  0.9549E+00
:INFO :  Number of Memory Steps    3 Skipping    0
:INFO :  SLambda=    1.4992442966  Max    1.4992442966
:PREDicted Charge, CTotal, PW Trust    1.447E-01   3.337E-01   1.393E-01
:PREDicted DMix, Beta, BLim   2.5901E-01  2.4603E+00  4.2921E-01

Eigenvalues, unscaled except for SY+YY
   #     SY Real        SY Imag          SS             YY         SY+YY Real      SY+YY Imag
   1   1.787521E+00   0.000000E+00   1.768634E+00   1.939638E+00   4.580363E+00   0.000000E+00
   2  -6.837455E-15   0.000000E+00   9.277452E-02   1.059553E+00   8.159282E-04   0.000000E+00
   3   2.904802E-01   0.000000E+00   3.826247E-17   8.090573E-04   1.534253E+00   0.000000E+00
 
:INFO :  Singular value  4.580E+00 Weight  1.000E+00 Projection -1.018E-01
:INFO :  Singular value  1.534E+00 Weight  1.000E+00 Projection -8.930E-01
:INFO :  Singular value  8.159E-04 Weight  9.465E-01 Projection  1.571E+01
:RANK :  ACTIVE   2.95/3  =  98.22 % ; YY RANK   2.95/3  =  98.19 %
 
:BLIM :  VZERO Control Off
:TRUST:  Step 3.77E-01  Charge 8.25E-02 (e) CTO  2.75E-01 (e) PW  3.85E-01 (e)
:DTRUS:  Lambda    2.275E+01 Increment    7.276E-12 Iterations   140 DMIX    9.776E-02
:INFOA:  Angle SubSpace to MSR1      6.53
:DIRM :  MEMORY  3/8  SCALE   1.000 RED  0.85 PRED  0.95 NEXT  0.61 
:INFO :  Limited by Atoms F by Step T

:TRAVE:  Charge 5.45E-02 (e) CTO  1.11E-01 (e) PW  4.06E-02 (e)
:DIRP :  |MSR1|= 7.165E-02 |PRATT|= 3.920E-01 ANGLE=   7.9 DEGREES
:DIRQ :  |MSR1|= 1.381E-01 |PRATT|= 1.062E+00 ANGLE=  25.6 DEGREES
:DIRT :  |MSR1|= 1.556E-01 |PRATT|= 1.132E+00 ANGLE=  24.7 DEGREES
:MIX  :   MSE1   REGULARIZATION:  1.94E-04 GREED: 0.13548  LMStep 0.51  0.1375 Charge         
     
       CHARGES OF MIXED CHARGE DENSITY
:CTO   : INTERSTITIAL CHARGE =     4.065417
:CPC   : PW Pseudocharge     =    11.820763
:CTO001: CHARGE SPHERE  1    =    25.259599
:CTO002: CHARGE SPHERE  2    =    25.259595
:CTO003: CHARGE SPHERE  3    =    43.707694

:NEC03: NUCLEAR AND ELECTRONIC CHARGE    142.00000   142.00000

PW CHANGE     H    K    L      Current       Change    Residue
:PTO001:      0    0    0  4.43660847E-02 -3.816E-05  1.153E-03
:PTO002:     -1   -1   -1  3.59806438E-09  3.758E-09  8.669E-09
:PTO003:      0    0   -2 -1.67670746E-02  1.174E-03  6.326E-03
:PTO004:      0   -2   -2  2.95907450E-03 -1.648E-03 -7.861E-03
:PTO005:     -1   -1   -3  1.59458985E-10  1.495E-10  1.778E-10
:PTO006:     -2   -2   -2  5.40596682E-03 -3.116E-04 -2.050E-03
:PTO007:      0    0   -4 -1.81521007E-02  1.299E-03  7.144E-03
:PTO008:     -1   -3   -3 -5.55955338E-09 -5.771E-09 -1.303E-08
:PTO009:      0   -2   -4  2.08951147E-02 -2.256E-03 -1.250E-02
:PTO010:     -2   -2   -4 -4.98478616E-02  6.697E-03  3.672E-02
:PTO011:     -3   -3   -3 -9.12243210E-10 -9.894E-10 -2.576E-09
:PTO012:     -1   -1   -5  1.75201184E-11  1.166E-10  1.031E-09

:ENE  : ********** TOTAL ENERGY IN Ry =       -24232.17228196

 Flat Integration
 New Mode for Coulomb Integral
 Consistent 3/8+Simpson combinations
 Extension of core to zero
 LDM version in phi
 Fifth-order quadrature in outwin


            ---------
:ITE005:  5. ITERATION
            ---------

:NATO :    3 INDEPENDENT AND    4 TOTAL ATOMS IN UNITCELL
       SUBSTANCE: FeRh                                                        

       LATTICE                      = F   
:POT  : POTENTIAL OPTION EX_PBE EC_PBE VX_PBE VC_PBE
:LAT  : LATTICE CONSTANTS= 11.27222 11.27222 11.27222    1.571    1.571    1.571
:VOL  : UNIT CELL VOLUME =     358.07036
       MODE OF CALCULATION IS       = RELA
       NON-SPINPOLARIZED CALCULATION
:IFFT  : FFT-parameters:   90   90   90 Factor: 2.00


   CONVERGENCE PARAMETER FOR PSEUDOCHARGE: NCON=  9
   MAXIMAL VALUE OF RMT(JATOM)*ABSK(NKK) : RK  =29.05063


:VKCOUL :  VK-COUL convergence: 0.562E-07
       ATOMNUMBER=  1 Fe1        VCOUL-ZERO =  0.63374E+00
       ATOMNUMBER=  2 Fe2        VCOUL-ZERO =  0.63374E+00
       ATOMNUMBER=  3 Rh1        VCOUL-ZERO =  0.59147E+00
:FIT001: LUSE= 13 SIGMA OF V-XC FIT FOR ATOM  1  0.3804922E-02
:FIT001: LUSE= 13 SIGMA OF V-XC FIT FOR ATOM  1  0.3804922E-02
:FIT002: LUSE= 13 SIGMA OF V-XC FIT FOR ATOM  2  0.3804921E-02
:FIT002: LUSE= 13 SIGMA OF V-XC FIT FOR ATOM  2  0.3804921E-02
:FIT003: LUSE= 13 SIGMA OF V-XC FIT FOR ATOM  3  0.2882786E-03
:FIT003: LUSE= 13 SIGMA OF V-XC FIT FOR ATOM  3  0.2882786E-03
:DEN  : DENSITY INTEGRAL  =         -9869.03288713   (Ry)
       ELS_POTENTIAL_AT Z=0 and Z=0.5:  -0.17448  -0.17448
       ELS_POTENTIAL_AT Y=0 and Y=0.5:   0.00000   0.00000
:VZERO:v0,v0c,v0x  -0.73794  -0.17448  -0.56346 v5,v5c,v5x  -0.73794  -0.17448  -0.56346
:VZERY:v0,v0c,v0x  -0.78842   0.00000  -0.78842 v5,v5c,v5x  -0.78842   0.00000  -0.78842
:VZERX:v0,v0c,v0x  -0.78842   0.00000  -0.78842 v5,v5c,v5x  -0.78842   0.00000  -0.78842
:LMAX-WF:   10   Non-Spherical LMAX:   4

          ATOMIC SPHERE DEPENDENT PARAMETERS FOR ATOM  Fe1       
:e__0001: OVERALL ENERGY PARAMETER IS    0.5470
          OVERALL BASIS SET ON ATOM IS LAPW
:E1_0001: E( 1)=    0.5470
             APW+lo
:E1_0001: E( 1)=   -3.1753   E(BOTTOM)=   -3.208   E(TOP)=   -3.143  1  2   179
             LOCAL ORBITAL
:E2_0001: E( 2)=    0.6146   E(BOTTOM)=    0.376   E(TOP)=    0.853  0  1   125
             APW+lo
:E0_0001: E( 0)=    0.5470
             APW+lo

          ATOMIC SPHERE DEPENDENT PARAMETERS FOR ATOM  Fe2       
:e__0002: OVERALL ENERGY PARAMETER IS    0.5470
          OVERALL BASIS SET ON ATOM IS LAPW
:E1_0002: E( 1)=    0.5470
             APW+lo
:E1_0002: E( 1)=   -3.1754   E(BOTTOM)=   -3.208   E(TOP)=   -3.143  1  2   180
             LOCAL ORBITAL
:E2_0002: E( 2)=    0.6146   E(BOTTOM)=    0.376   E(TOP)=    0.853  0  1   120
             APW+lo
:E0_0002: E( 0)=    0.5470
             APW+lo

          ATOMIC SPHERE DEPENDENT PARAMETERS FOR ATOM  Rh1       
:e__0003: OVERALL ENERGY PARAMETER IS    0.5470
          OVERALL BASIS SET ON ATOM IS LAPW
:E1_0003: E( 1)=    0.5470
             APW+lo
:E1_0003: E( 1)=   -2.7155   E(BOTTOM)=   -2.811   E(TOP)=   -2.620  2  3   164
             LOCAL ORBITAL
:E2_0003: E( 2)=    0.5606   E(BOTTOM)=    0.120   E(TOP)=    1.002  1  2   145
             APW+lo
:E0_0003: E( 0)=    0.5470
             APW+lo

       K=   0.00000   0.00000   0.00000            1
:RKM  : MATRIX SIZE   185LOs:  48  RKM= 6.64  WEIGHT= 1.00  PGR:    
       EIGENVALUES ARE:
:EIG00001:      -3.1694212   -3.1694212   -3.1694212   -3.1676960   -3.1676960
:EIG00006:      -3.1676960   -2.6988929   -2.6988929   -2.6988929   -2.6915930
:EIG00011:      -2.6915930   -2.6915930    0.0816239    0.3210069    0.3210069
:EIG00016:       0.3848754    0.3848754    0.3848754    0.5407988    0.5407988
:EIG00021:       0.5407988    0.5443841    0.5443841    0.5443841    0.6944107
:EIG00026:       0.6944107    0.7112877    0.7112877    0.7257794    0.7257794
:EIG00031:       0.7787696    0.7787696    0.7787696    1.2740752    1.3214503
:EIG00036:       1.3214503    1.3214503    1.3390754    1.3390754    1.3390754
:EIG00041:       1.4267197    1.4267197    1.4267197    1.4874749    1.9848125
:EIG00046:       1.9848125    2.0766715    2.1648162    2.1648162    2.1648162
 
       ********************************************************

:KPT   :      NUMBER OF K-POINTS:    72
:GAP (global)   :    0.0    Ry =     0.0   eV (metal)
         Bandranges (emin - emax) and occupancy:
:BAN00021:  21    0.472387    0.543285  2.00000000
:BAN00022:  22    0.472387    0.599132  2.00000000
:BAN00023:  23    0.476879    0.631064  2.00000000
:BAN00024:  24    0.476881    0.640498  2.00000000
:BAN00025:  25    0.621568    0.694641  2.00000000
:BAN00026:  26    0.642637    0.702205  2.00000000
:BAN00027:  27    0.651819    0.711288  1.99915186
:BAN00028:  28    0.661342    0.711288  1.99879635
:BAN00029:  29    0.688058    0.752489  1.52915562
:BAN00030:  30    0.694786    0.752489  0.46869458
:BAN00031:  31    0.702831    0.778770  0.00420160
:BAN00032:  32    0.721350    0.779361  0.00000000
:BAN00033:  33    0.728710    0.798813  0.00000000
:BAN00034:  34    0.759278    1.274075  0.00000000
:BAN00035:  35    0.797529    1.321450  0.00000000
:BAN00036:  36    0.800749    1.321450  0.00000000
        Energy to separate low and high energystates:    0.03162


:NOE  : NUMBER OF ELECTRONS          =   58.000

:FER  : F E R M I - ENERGY(TETRAH.M.)=   0.7089199862
:GMA  : POTENTIAL AND CHARGE CUT-OFF  12.00 Ry**.5

:POS001: ATOM    1 X,Y,Z = 0.00000 0.00000 0.00000  MULT= 1  ZZ= 26.000  Fe1       

       LMMAX  5
       LM=   0 0  4 0  4 4  6 0  6 4

:CHA001: TOTAL VALENCE CHARGE INSIDE SPHERE   1 =  13.1036    (RMT=  2.4300 )
:PCS001: PARTIAL CHARGES SPHERE =  1 S,P,D,F,      D-EG,D-T2G 
:QTL001: 0.4597 6.4881 6.0863 0.0507 0.0000 0.0000 0.0000 2.3534 3.7329 0.0000 0.0000 0.0000
        Q-s-low E-s-low   Q-p-low E-p-low   Q-d-low E-d-low   Q-f-low E-f-low
:EPL001:  0.0010 -2.7040    5.9902 -3.1683    0.0025 -2.6998    0.0011 -2.7004
        Q-s-hi  E-s-hi    Q-p-hi  E-p-hi    Q-d-hi  E-d-hi    Q-f-hi  E-f-hi 
:EPH001:  0.4586  0.3150    0.4979  0.4585    6.0838  0.5877    0.0497  0.5244

:POS002: ATOM    2 X,Y,Z = 0.50000 0.00000 0.00000  MULT= 1  ZZ= 26.000  Fe2       

       LMMAX  5
       LM=   0 0  4 0  4 4  6 0  6 4

:CHA002: TOTAL VALENCE CHARGE INSIDE SPHERE   2 =  13.1035    (RMT=  2.4300 )
:PCS002: PARTIAL CHARGES SPHERE =  2 S,P,D,F,      D-EG,D-T2G 
:QTL002: 0.4597 6.4881 6.0862 0.0507 0.0000 0.0000 0.0000 2.3536 3.7327 0.0000 0.0000 0.0000
        Q-s-low E-s-low   Q-p-low E-p-low   Q-d-low E-d-low   Q-f-low E-f-low
:EPL002:  0.0010 -2.7040    5.9902 -3.1683    0.0025 -2.6998    0.0011 -2.7004
        Q-s-hi  E-s-hi    Q-p-hi  E-p-hi    Q-d-hi  E-d-hi    Q-f-hi  E-f-hi 
:EPH002:  0.4586  0.3150    0.4979  0.4585    6.0837  0.5877    0.0497  0.5244

:POS003: ATOM    3 X,Y,Z = 0.25000 0.25000 0.25000  MULT= 2  ZZ= 45.000  Rh1       

       LMMAX  6
       LM=   0 0  4 0  4 4  6 0  6 4 -3 2

:CHA003: TOTAL VALENCE CHARGE INSIDE SPHERE   3 =  13.5260    (RMT=  2.4300 )
:PCS003: PARTIAL CHARGES SPHERE =  3 S,P,D,F,      D-EG,D-T2G 
:QTL003: 0.3702 6.3307 6.7702 0.0435 0.0000 0.0000 0.0000 2.6824 4.0879 0.0000 0.0000 0.0000
        Q-s-low E-s-low   Q-p-low E-p-low   Q-d-low E-d-low   Q-f-low E-f-low
:EPL003:  0.0003 -3.1008    5.9601 -2.6958    0.0008 -3.1100    0.0004 -3.1070
        Q-s-hi  E-s-hi    Q-p-hi  E-p-hi    Q-d-hi  E-d-hi    Q-f-hi  E-f-hi 
:EPH003:  0.3699  0.3338    0.3705  0.4899    6.7694  0.4984    0.0431  0.5732

:CHA  : TOTAL VALENCE CHARGE INSIDE UNIT CELL =      58.000000

:SUM  : SUM OF EIGENVALUES =         -52.952682537


        1.ATOM      Fe1                   5 CORE STATES
:1S 001: 1S                -513.069232150 Ry
:2S 001: 2S                 -58.976765770 Ry
:2PP001: 2P*                -50.680968350 Ry
:2P 001: 2P                 -49.763388680 Ry
:3S 001: 3S                  -5.658721891 Ry

        2.ATOM      Fe2                   5 CORE STATES
:1S 002: 1S                -513.069239618 Ry
:2S 002: 2S                 -58.976772968 Ry
:2PP002: 2P*                -50.680975614 Ry
:2P 002: 2P                 -49.763395937 Ry
:3S 002: 3S                  -5.658726970 Ry

        3.ATOM      Rh1                  10 CORE STATES
:1S 003: 1S               -1691.422392435 Ry
:2S 003: 2S                -244.311815030 Ry
:2PP003: 2P*               -226.122464291 Ry
:2P 003: 2P                -215.493036796 Ry
:3S 003: 3S                 -42.837257279 Ry
:3PP003: 3P*                -35.719464283 Ry
:3P 003: 3P                 -33.890547191 Ry
:3DD003: 3D*                -21.293732900 Ry
:3D 003: 3D                 -20.932999422 Ry
:4S 003: 4S                  -5.051753519 Ry
:CINT001 Core Integral Atom   1   11.999233
:CINT002 Core Integral Atom   2   11.999233
:CINT003 Core Integral Atom   3   29.997378

       DENSITY AT NUCLEUS
        JATOM        VALENCE       SEMI-CORE          CORE           TOTAL
:RTO001:   1        6.719938        0.000000    15302.531218    15309.251156
:RTO002:   2        6.719939        0.000000    15302.531267    15309.251206
:RTO003:   3       24.081944        0.000000   155313.946450   155338.028394
     
       CHARGES OF NEW CHARGE DENSITY
:NTO   : INTERSTITIAL CHARGE =     4.740873
:NPC   : PW Pseudocharge     =    11.143684
:NTO001: CHARGE SPHERE  1    =    25.102798
:NTO002: CHARGE SPHERE  2    =    25.102765
:NTO003: CHARGE SPHERE  3    =    43.523361

:NEC01: NUCLEAR AND ELECTRONIC CHARGE    142.00000   141.99316
     
       CHARGES OF OLD CHARGE DENSITY
:OTO   : INTERSTITIAL CHARGE =     4.065417
:OPC   : PW Pseudocharge     =    11.820763
:OTO001: CHARGE SPHERE  1    =    25.259599
:OTO002: CHARGE SPHERE  2    =    25.259595
:OTO003: CHARGE SPHERE  3    =    43.707694

:NEC02: NUCLEAR AND ELECTRONIC CHARGE    142.00000   142.00000
     
       CONVERGENCE TEST
:DTO001: DIFFERENCE IN SPHERE  1 =  0.4108381
:DTO002: DIFFERENCE IN SPHERE  2 =  0.4108787
:DTO003: DIFFERENCE IN SPHERE  3 =  0.2756353

:DIS  :  CHARGE DISTANCE       ( 0.4108787 for atom    2 spin 1)      0.3432469
 PW Mixed is           49
 
******************************************************
* MULTISECANT MIXING VER9 RELEASE 10.4.0              *
* Standard Mode with controls                        *
* Fixed density scale                                *
* Regularization       1.000E-04                     *
* Trust Upper Limit    5.000E+00                     *
* Max Number of Memory Steps    8                    *
******************************************************
 
:PWTMP   1.1765E+02  4.5917E+02  3.5807E+02
:PLANE:  PW TOTAL      1.8086 DISTAN   3.07E-01  1.70E+01 %
:CHARG:  CLM/ATOM    299.8716 DISTAN   2.36E-01  7.87E-02 %
 
Step History
        DMIX         DMIXT        Red     Pred      Trust     Lambda    MagRel    MagAbs     Beta
  1   3.5000E-02   3.5000E-02 -1.00E+00  1.00E+00 -1.00E+01  1.00E+00  3.50E-02  3.50E-02  1.00E+00
  2   2.5000E-02   2.5000E-02  5.92E-01  1.00E+00 -1.00E+01  1.00E+00  2.50E-02  5.93E-02  1.00E+00
  3   3.7434E-02   3.7434E-02  9.41E-01  1.00E+00 -1.00E+01  1.51E-01  3.74E-02  5.26E-02  1.00E+00
  4   5.4191E-02   5.4191E-02  8.55E-01  9.47E-01  2.53E-01  1.50E+00  6.72E-02  8.89E-02  9.03E-01
  5   1.3548E-01   9.7759E-02 -1.00E+00  6.11E-01  3.77E-01  1.00E+00  1.38E-01  1.56E-01  1.00E+00
:JACOBIANS    9.444E-01   2.318E-01
  
:NORMS:  1/Froebius, Min, Max, Used   0.5742E+00  0.3582E+00  0.9977E+00  0.5928E+00
:INFO :  Number of Memory Steps    4 Skipping    0
:INFO :  SLambda=    1.9057150935  Max    1.9057150935
:PREDicted Charge, CTotal, PW Trust    1.863E-01   3.885E-01   6.464E-02
:PREDicted DMix, Beta, BLim   8.7897E-02  1.4413E+00  4.5556E-01

Eigenvalues, unscaled except for SY+YY
   #     SY Real        SY Imag          SS             YY         SY+YY Real      SY+YY Imag
   1   1.228277E+00   0.000000E+00   1.103763E+00   3.140427E+00   5.108801E+00   0.000000E+00
   2   4.428058E-01   0.000000E+00   2.145557E-01   7.964240E-01   2.007285E+00   0.000000E+00
   3  -2.497494E-15   0.000000E+00   4.957273E-04   6.301137E-02   1.570377E-04   0.000000E+00
   4   3.985998E-03   0.000000E+00   7.571582E-17   1.377292E-04   7.596080E-02   0.000000E+00
 
:INFO :  Singular value  5.109E+00 Weight  1.000E+00 Projection -2.341E-01
:INFO :  Singular value  2.007E+00 Weight  1.000E+00 Projection -3.440E-01
:INFO :  Singular value  7.596E-02 Weight  1.000E+00 Projection  2.049E+00
:INFO :  Singular value  1.570E-04 Weight  2.000E-01 Projection -7.937E-01
:RANK :  ACTIVE   3.20/4  =  80.00 % ; YY RANK   3.16/4  =  79.03 %
 
Increasing Charge by   1.503
:BLIM :  VZERO Control Off
:TRUST:  Step 5.02E-01  Charge 1.36E-01 (e) CTO  3.03E-01 (e) PW  3.85E-01 (e)
:DIRM :  MEMORY  4/8  SCALE   1.000 RED  0.68 PRED  0.61 NEXT  0.48 
:TRAVE:  Charge 7.58E-02 (e) CTO  1.74E-01 (e) PW  4.09E-02 (e)
:DIRP :  |MSR1|= 1.107E-01 |PRATT|= 3.073E-01 ANGLE=  13.7 DEGREES
:DIRQ :  |MSR1|= 2.160E-01 |PRATT|= 7.080E-01 ANGLE=  16.6 DEGREES
:DIRT :  |MSR1|= 2.427E-01 |PRATT|= 7.718E-01 ANGLE=  16.5 DEGREES
:MIX  :   MSE1   REGULARIZATION:  3.14E-04 GREED: 0.08881  Newton 1.00  0.3144                
     
       CHARGES OF MIXED CHARGE DENSITY
:CTO   : INTERSTITIAL CHARGE =     4.301347
:CPC   : PW Pseudocharge     =    11.710197
:CTO001: CHARGE SPHERE  1    =    25.238715
:CTO002: CHARGE SPHERE  2    =    25.238705
:CTO003: CHARGE SPHERE  3    =    43.610616

:NEC03: NUCLEAR AND ELECTRONIC CHARGE    142.00000   142.00000

PW CHANGE     H    K    L      Current       Change    Residue
:PTO001:      0    0    0  4.47161938E-02  3.501E-04  5.949E-05
:PTO002:     -1   -1   -1 -9.45526775E-09 -1.305E-08 -1.339E-07
:PTO003:      0    0   -2 -1.57370216E-02  1.030E-03  3.814E-03
:PTO004:      0   -2   -2  3.02205629E-03  6.298E-05 -5.181E-03
:PTO005:     -1   -1   -3  3.44944155E-08  3.433E-08  2.916E-07
:PTO006:     -2   -2   -2  4.62728503E-03 -7.787E-04 -1.270E-03
:PTO007:      0    0   -4 -1.56602405E-02  2.492E-03  6.070E-03
:PTO008:     -1   -3   -3 -1.33325328E-08 -7.773E-09 -3.120E-08
:PTO009:      0   -2   -4  1.72868513E-02 -3.608E-03 -9.247E-03
:PTO010:     -2   -2   -4 -3.90668217E-02  1.078E-02  2.973E-02
:PTO011:     -3   -3   -3  1.57487670E-08  1.666E-08  1.477E-07
:PTO012:     -1   -1   -5 -2.78273505E-08 -2.784E-08 -2.373E-07

:ENE  : ********** TOTAL ENERGY IN Ry =       -24232.11063031

 Flat Integration
 New Mode for Coulomb Integral
 Consistent 3/8+Simpson combinations
 Extension of core to zero
 LDM version in phi
 Fifth-order quadrature in outwin


            ---------
:ITE006:  6. ITERATION
            ---------

:NATO :    3 INDEPENDENT AND    4 TOTAL ATOMS IN UNITCELL
       SUBSTANCE: FeRh                                                        

       LATTICE                      = F   
:POT  : POTENTIAL OPTION EX_PBE EC_PBE VX_PBE VC_PBE
:LAT  : LATTICE CONSTANTS= 11.27222 11.27222 11.27222    1.571    1.571    1.571
:VOL  : UNIT CELL VOLUME =     358.07036
       MODE OF CALCULATION IS       = RELA
       NON-SPINPOLARIZED CALCULATION
:IFFT  : FFT-parameters:   90   90   90 Factor: 2.00


   CONVERGENCE PARAMETER FOR PSEUDOCHARGE: NCON=  9
   MAXIMAL VALUE OF RMT(JATOM)*ABSK(NKK) : RK  =29.05063


:VKCOUL :  VK-COUL convergence: 0.607E-07
       ATOMNUMBER=  1 Fe1        VCOUL-ZERO =  0.64434E+00
       ATOMNUMBER=  2 Fe2        VCOUL-ZERO =  0.64433E+00
       ATOMNUMBER=  3 Rh1        VCOUL-ZERO =  0.59458E+00
:FIT001: LUSE= 13 SIGMA OF V-XC FIT FOR ATOM  1  0.2835201E-02
:FIT001: LUSE= 13 SIGMA OF V-XC FIT FOR ATOM  1  0.2835201E-02
:FIT002: LUSE= 13 SIGMA OF V-XC FIT FOR ATOM  2  0.2835212E-02
:FIT002: LUSE= 13 SIGMA OF V-XC FIT FOR ATOM  2  0.2835212E-02
:FIT003: LUSE= 13 SIGMA OF V-XC FIT FOR ATOM  3  0.4258360E-03
:FIT003: LUSE= 13 SIGMA OF V-XC FIT FOR ATOM  3  0.4258360E-03
:DEN  : DENSITY INTEGRAL  =         -9856.20473509   (Ry)
       ELS_POTENTIAL_AT Z=0 and Z=0.5:  -0.15643  -0.15643
       ELS_POTENTIAL_AT Y=0 and Y=0.5:   0.00000   0.00000
:VZERO:v0,v0c,v0x  -0.76025  -0.15643  -0.60382 v5,v5c,v5x  -0.76025  -0.15643  -0.60382
:VZERY:v0,v0c,v0x  -0.79612   0.00000  -0.79612 v5,v5c,v5x  -0.79612   0.00000  -0.79612
:VZERX:v0,v0c,v0x  -0.79612   0.00000  -0.79612 v5,v5c,v5x  -0.79612   0.00000  -0.79612
:LMAX-WF:   10   Non-Spherical LMAX:   4

          ATOMIC SPHERE DEPENDENT PARAMETERS FOR ATOM  Fe1       
:e__0001: OVERALL ENERGY PARAMETER IS    0.5216
          OVERALL BASIS SET ON ATOM IS LAPW
:E1_0001: E( 1)=    0.5216
             APW+lo
:E1_0001: E( 1)=   -3.2524   E(BOTTOM)=   -3.283   E(TOP)=   -3.222  1  2   176
             LOCAL ORBITAL
:E2_0001: E( 2)=    0.5539   E(BOTTOM)=    0.327   E(TOP)=    0.780  0  1   123
             APW+lo
:E0_0001: E( 0)=    0.5216
             APW+lo

          ATOMIC SPHERE DEPENDENT PARAMETERS FOR ATOM  Fe2       
:e__0002: OVERALL ENERGY PARAMETER IS    0.5216
          OVERALL BASIS SET ON ATOM IS LAPW
:E1_0002: E( 1)=    0.5216
             APW+lo
:E1_0002: E( 1)=   -3.2524   E(BOTTOM)=   -3.283   E(TOP)=   -3.222  1  2   171
             LOCAL ORBITAL
:E2_0002: E( 2)=    0.5538   E(BOTTOM)=    0.327   E(TOP)=    0.780  0  1   123
             APW+lo
:E0_0002: E( 0)=    0.5216
             APW+lo

          ATOMIC SPHERE DEPENDENT PARAMETERS FOR ATOM  Rh1       
:e__0003: OVERALL ENERGY PARAMETER IS    0.5216
          OVERALL BASIS SET ON ATOM IS LAPW
:E1_0003: E( 1)=    0.5216
             APW+lo
:E1_0003: E( 1)=   -2.7874   E(BOTTOM)=   -2.880   E(TOP)=   -2.695  2  3   158
             LOCAL ORBITAL
:E2_0003: E( 2)=    0.5059   E(BOTTOM)=    0.076   E(TOP)=    0.936  1  2   149
             APW+lo
:E0_0003: E( 0)=    0.5216
             APW+lo

       K=   0.00000   0.00000   0.00000            1
:RKM  : MATRIX SIZE   185LOs:  48  RKM= 6.64  WEIGHT= 1.00  PGR:    
       EIGENVALUES ARE:
:EIG00001:      -3.2467670   -3.2467670   -3.2467670   -3.2451604   -3.2451604
:EIG00006:      -3.2451604   -2.7712429   -2.7712429   -2.7712429   -2.7643537
:EIG00011:      -2.7643537   -2.7643537    0.0674230    0.2815513    0.2815513
:EIG00016:       0.3465732    0.3465732    0.3465732    0.4903966    0.4903966
:EIG00021:       0.4903966    0.4918879    0.4918879    0.4918879    0.6332085
:EIG00026:       0.6332085    0.6536067    0.6536067    0.6594205    0.6594205
:EIG00031:       0.7130415    0.7130415    0.7130415    1.2561604    1.2846160
:EIG00036:       1.2846160    1.2846160    1.3213974    1.3213974    1.3213974
:EIG00041:       1.3937896    1.3937896    1.3937896    1.4634683    1.9488474
:EIG00046:       1.9488474    2.0545051    2.1538557    2.1538557    2.1538557
 
       ********************************************************

:KPT   :      NUMBER OF K-POINTS:    72
:GAP (global)   :    0.0    Ry =     0.0   eV (metal)
         Bandranges (emin - emax) and occupancy:
:BAN00021:  21    0.424841    0.493736  2.00000000
:BAN00022:  22    0.424841    0.545355  2.00000000
:BAN00023:  23    0.432174    0.573065  2.00000000
:BAN00024:  24    0.432178    0.590270  2.00000000
:BAN00025:  25    0.569291    0.633209  2.00000000
:BAN00026:  26    0.587999    0.642757  2.00000000
:BAN00027:  27    0.597201    0.653607  1.98721480
:BAN00028:  28    0.603440    0.653607  1.93333081
:BAN00029:  29    0.626280    0.687673  1.56391835
:BAN00030:  30    0.634081    0.687673  0.51152077
:BAN00031:  31    0.646644    0.715112  0.00401527
:BAN00032:  32    0.655592    0.721580  0.00000000
:BAN00033:  33    0.666579    0.732418  0.00000000
:BAN00034:  34    0.700483    1.256160  0.00000000
:BAN00035:  35    0.734298    1.284616  0.00000000
:BAN00036:  36    0.749688    1.284616  0.00000000
        Energy to separate low and high energystates:    0.01742


:NOE  : NUMBER OF ELECTRONS          =   58.000

:FER  : F E R M I - ENERGY(TETRAH.M.)=   0.6478814654
:GMA  : POTENTIAL AND CHARGE CUT-OFF  12.00 Ry**.5

:POS001: ATOM    1 X,Y,Z = 0.00000 0.00000 0.00000  MULT= 1  ZZ= 26.000  Fe1       

       LMMAX  5
       LM=   0 0  4 0  4 4  6 0  6 4

:CHA001: TOTAL VALENCE CHARGE INSIDE SPHERE   1 =  13.2837    (RMT=  2.4300 )
:PCS001: PARTIAL CHARGES SPHERE =  1 S,P,D,F,      D-EG,D-T2G 
:QTL001: 0.4425 6.4391 6.3372 0.0469 0.0000 0.0000 0.0000 2.5127 3.8245 0.0000 0.0000 0.0000
        Q-s-low E-s-low   Q-p-low E-p-low   Q-d-low E-d-low   Q-f-low E-f-low
:EPL001:  0.0009 -2.7762    5.9908 -3.2457    0.0024 -2.7722    0.0010 -2.7730
        Q-s-hi  E-s-hi    Q-p-hi  E-p-hi    Q-d-hi  E-d-hi    Q-f-hi  E-f-hi 
:EPH001:  0.4416  0.2889    0.4483  0.4167    6.3349  0.5341    0.0459  0.4749

:POS002: ATOM    2 X,Y,Z = 0.50000 0.00000 0.00000  MULT= 1  ZZ= 26.000  Fe2       

       LMMAX  5
       LM=   0 0  4 0  4 4  6 0  6 4

:CHA002: TOTAL VALENCE CHARGE INSIDE SPHERE   2 =  13.2859    (RMT=  2.4300 )
:PCS002: PARTIAL CHARGES SPHERE =  2 S,P,D,F,      D-EG,D-T2G 
:QTL002: 0.4425 6.4391 6.3394 0.0469 0.0000 0.0000 0.0000 2.5147 3.8247 0.0000 0.0000 0.0000
        Q-s-low E-s-low   Q-p-low E-p-low   Q-d-low E-d-low   Q-f-low E-f-low
:EPL002:  0.0009 -2.7762    5.9908 -3.2457    0.0024 -2.7722    0.0010 -2.7730
        Q-s-hi  E-s-hi    Q-p-hi  E-p-hi    Q-d-hi  E-d-hi    Q-f-hi  E-f-hi 
:EPH002:  0.4416  0.2889    0.4483  0.4167    6.3370  0.5341    0.0459  0.4749

:POS003: ATOM    3 X,Y,Z = 0.25000 0.25000 0.25000  MULT= 2  ZZ= 45.000  Rh1       

       LMMAX  6
       LM=   0 0  4 0  4 4  6 0  6 4 -3 2

:CHA003: TOTAL VALENCE CHARGE INSIDE SPHERE   3 =  13.4993    (RMT=  2.4300 )
:PCS003: PARTIAL CHARGES SPHERE =  3 S,P,D,F,      D-EG,D-T2G 
:QTL003: 0.3577 6.2925 6.7991 0.0391 0.0000 0.0000 0.0000 2.6769 4.1222 0.0000 0.0000 0.0000
        Q-s-low E-s-low   Q-p-low E-p-low   Q-d-low E-d-low   Q-f-low E-f-low
:EPL003:  0.0003 -3.1783    5.9621 -2.7684    0.0007 -3.1876    0.0004 -3.1841
        Q-s-hi  E-s-hi    Q-p-hi  E-p-hi    Q-d-hi  E-d-hi    Q-f-hi  E-f-hi 
:EPH003:  0.3575  0.3053    0.3304  0.4464    6.7984  0.4490    0.0388  0.5198

:CHA  : TOTAL VALENCE CHARGE INSIDE UNIT CELL =      58.000000

:SUM  : SUM OF EIGENVALUES =         -56.327592451


        1.ATOM      Fe1                   5 CORE STATES
:1S 001: 1S                -513.201016884 Ry
:2S 001: 2S                 -59.107106733 Ry
:2PP001: 2P*                -50.812264298 Ry
:2P 001: 2P                 -49.894581342 Ry
:3S 001: 3S                  -5.740385936 Ry

        2.ATOM      Fe2                   5 CORE STATES
:1S 002: 1S                -513.201037339 Ry
:2S 002: 2S                 -59.107126624 Ry
:2PP002: 2P*                -50.812284351 Ry
:2P 002: 2P                 -49.894601379 Ry
:3S 002: 3S                  -5.740399984 Ry

        3.ATOM      Rh1                  10 CORE STATES
:1S 003: 1S               -1691.540113407 Ry
:2S 003: 2S                -244.428236546 Ry
:2PP003: 2P*               -226.239444594 Ry
:2P 003: 2P                -215.609890793 Ry
:3S 003: 3S                 -42.942607485 Ry
:3PP003: 3P*                -35.825098483 Ry
:3P 003: 3P                 -33.995772281 Ry
:3DD003: 3D*                -21.400215393 Ry
:3D 003: 3D                 -21.039338354 Ry
:4S 003: 4S                  -5.130471096 Ry
:CINT001 Core Integral Atom   1   11.999272
:CINT002 Core Integral Atom   2   11.999273
:CINT003 Core Integral Atom   3   29.997485

       DENSITY AT NUCLEUS
        JATOM        VALENCE       SEMI-CORE          CORE           TOTAL
:RTO001:   1        6.420304        0.000000    15303.626356    15310.046660
:RTO002:   2        6.420169        0.000000    15303.626491    15310.046660
:RTO003:   3       23.157231        0.000000   155316.722181   155339.879411
     
       CHARGES OF NEW CHARGE DENSITY
:NTO   : INTERSTITIAL CHARGE =     4.431770
:NPC   : PW Pseudocharge     =    10.645600
:NTO001: CHARGE SPHERE  1    =    25.282995
:NTO002: CHARGE SPHERE  2    =    25.285167
:NTO003: CHARGE SPHERE  3    =    43.496759

:NEC01: NUCLEAR AND ELECTRONIC CHARGE    142.00000   141.99345
     
       CHARGES OF OLD CHARGE DENSITY
:OTO   : INTERSTITIAL CHARGE =     4.301347
:OPC   : PW Pseudocharge     =    11.710197
:OTO001: CHARGE SPHERE  1    =    25.238715
:OTO002: CHARGE SPHERE  2    =    25.238705
:OTO003: CHARGE SPHERE  3    =    43.610616

:NEC02: NUCLEAR AND ELECTRONIC CHARGE    142.00000   142.00000
     
       CONVERGENCE TEST
:DTO001: DIFFERENCE IN SPHERE  1 =  0.2048288
:DTO002: DIFFERENCE IN SPHERE  2 =  0.2068189
:DTO003: DIFFERENCE IN SPHERE  3 =  0.1136791

:DIS  :  CHARGE DISTANCE       ( 0.2068189 for atom    2 spin 1)      0.1597515
 PW Mixed is           49
 
******************************************************
* MULTISECANT MIXING VER9 RELEASE 10.4.0              *
* Standard Mode with controls                        *
* Fixed density scale                                *
* Regularization       1.000E-04                     *
* Trust Upper Limit    5.000E+00                     *
* Max Number of Memory Steps    8                    *
******************************************************
 
:PWTMP   1.1765E+02  4.5917E+02  3.5807E+02
:PLANE:  PW TOTAL      1.7908 DISTAN   2.21E-01  1.23E+01 %
:CHARG:  CLM/ATOM    299.8646 DISTAN   1.20E-01  4.01E-02 %
 
Step History
        DMIX         DMIXT        Red     Pred      Trust     Lambda    MagRel    MagAbs     Beta
  1   3.5000E-02   3.5000E-02 -1.00E+00  1.00E+00 -1.00E+01  1.00E+00  3.50E-02  3.50E-02  1.00E+00
  2   2.5000E-02   2.5000E-02  5.92E-01  1.00E+00 -1.00E+01  1.00E+00  2.50E-02  5.93E-02  1.00E+00
  3   3.7434E-02   3.7434E-02  9.41E-01  1.00E+00 -1.00E+01  1.51E-01  3.74E-02  5.26E-02  1.00E+00
  4   5.4191E-02   5.4191E-02  8.55E-01  9.47E-01  2.53E-01  1.50E+00  6.72E-02  8.89E-02  9.03E-01
  5   1.3548E-01   9.7759E-02  6.82E-01  6.11E-01  3.77E-01  1.91E+00  1.38E-01  1.56E-01  1.00E+00
  6   8.8806E-02   8.8806E-02 -1.00E+00  4.80E-01  5.02E-01  1.00E+00  3.14E-01  2.43E-01  1.00E+00
:JACOBIANS    9.907E-01   2.817E-01
  
:NORMS:  1/Froebius, Min, Max, Used   0.4719E+00  0.3951E+00  0.9977E+00  0.4719E+00
:INFO :  Number of Memory Steps    5 Skipping    0
:INFO :  SLambda=    2.3290114158  Max    2.3290114158
:PREDicted Charge, CTotal, PW Trust    1.135E-01   2.707E-01   2.583E-02
:PREDicted DMix, Beta, BLim   1.0143E-01  1.0057E+00  3.5094E-01

Eigenvalues, unscaled except for SY+YY
[...]
  6   8.8806E-02   8.8806E-02  5.48E-01  4.80E-01  5.02E-01  2.33E+00  3.14E-01  2.43E-01  1.00E+00
  7   9.5345E-02   9.5345E-02  6.30E-01  6.21E-01  6.69E-01  8.99E-01  2.33E-01  9.84E-02  1.00E+00
  8   2.3836E-01   2.3836E-01  5.00E+00  5.10E-01  1.51E+00  1.35E+00  6.73E-01  1.79E-01  1.00E+00
  9   9.7480E-02   9.7480E-02  1.13E-01  7.91E-02  1.80E+00  2.02E+00  1.40E-02  2.51E-02  9.38E-01
 10   8.6381E-02   8.6381E-02  3.95E-01  3.67E-01  2.40E+00  2.66E+00  6.88E-02  1.40E-02  1.00E+00
 11   1.5772E-01   1.5772E-01  2.01E+00  9.44E-01  2.87E+00  2.50E+00  5.32E-01  4.27E-02  1.00E+00
 12   1.9953E-01   1.9953E-01  1.80E-01  1.05E-01  2.15E+00  2.59E+00  9.78E-02  1.58E-02  1.00E+00
 13   1.4549E-01   1.4549E-01 -1.00E+00  4.04E-01  2.87E+00  1.00E+00  1.70E-01  4.94E-03  1.00E+00
:JACOBIANS    1.072E+00   1.945E+00
  
:NORMS:  1/Froebius, Min, Max, Used   0.5110E+00  0.3798E+00  0.1064E+01  0.6749E+00
:INFO :  Number of Memory Steps    8 Skipping    4
:INFO :  SLambda=    2.6330416847  Max    2.6330416847
:PREDicted Charge, CTotal, PW Trust    2.442E-03   4.092E-03   2.343E-03
:PREDicted DMix, Beta, BLim   3.9513E-01  2.5598E+00  5.3012E-01

Eigenvalues, unscaled except for SY+YY
   #     SY Real        SY Imag          SS             YY         SY+YY Real      SY+YY Imag
   1   1.503686E+00   0.000000E+00   1.550118E+00   3.403689E+00   5.603298E+00   0.000000E+00
   2   5.739529E-01   0.000000E+00   4.620688E-01   1.992216E+00   3.912406E+00   0.000000E+00
   3   2.296993E-01   0.000000E+00   6.650404E-02   1.335201E+00   2.406716E+00   0.000000E+00
   4   8.610469E-02   0.000000E+00   7.931676E-03   7.002909E-01   1.355663E+00   0.000000E+00
   5   1.794877E-02   0.000000E+00   1.452989E-03   5.545831E-01   1.056331E+00   0.000000E+00
   6   3.877433E-03   0.000000E+00   2.877569E-04   9.147226E-03   1.925406E-02   0.000000E+00
   7   3.813635E-04   0.000000E+00   1.971485E-04   3.629201E-03   2.423384E-03   0.000000E+00
   8   7.706845E-04   0.000000E+00   6.340706E-05   1.242584E-03   6.445909E-03   0.000000E+00
 
:INFO :  Singular value  5.722E+00 Weight  1.000E+00 Projection -1.455E-04
:INFO :  Singular value  3.881E+00 Weight  1.000E+00 Projection  1.325E-02
:INFO :  Singular value  2.417E+00 Weight  1.000E+00 Projection -1.321E-02
:INFO :  Singular value  1.352E+00 Weight  1.000E+00 Projection -1.121E-02
:INFO :  Singular value  1.042E+00 Weight  1.000E+00 Projection  1.029E-02
:INFO :  Singular value  2.121E-02 Weight  9.997E-01 Projection -1.730E-01
:INFO :  Singular value  6.112E-03 Weight  9.969E-01 Projection  1.318E-01
:INFO :  Singular value  2.319E-03 Weight  9.789E-01 Projection  3.307E-02
:RANK :  ACTIVE   7.98/8  =  99.69 % ; YY RANK   7.92/8  =  99.00 %
 
:BLIM :  VZERO Control Off
:TRUST:  Step 2.15E+00  Charge 3.77E-02 (e) CTO  8.19E-02 (e) PW  1.03E-01 (e)
:DIRM :  MEMORY  8/8  SCALE   1.000 RED  1.41 PRED  0.40 NEXT  0.19 
:TRAVE:  Charge 2.68E-03 (e) CTO  4.08E-03 (e) PW  6.82E-03 (e)
:DIRP :  |MSR1|= 2.571E-03 |PRATT|= 2.360E-03 ANGLE= 102.3 DEGREES
:DIRQ :  |MSR1|= 1.148E-02 |PRATT|= 4.086E-02 ANGLE=  60.4 DEGREES
:DIRT :  |MSR1|= 1.177E-02 |PRATT|= 4.093E-02 ANGLE=  61.4 DEGREES
:MIX  :   MSE1   REGULARIZATION:  3.40E-04 GREED: 0.27554  Newton 1.00  0.2876                
     
       CHARGES OF MIXED CHARGE DENSITY
:CTO   : INTERSTITIAL CHARGE =     4.445481
:CPC   : PW Pseudocharge     =    10.692301
:CTO001: CHARGE SPHERE  1    =    25.195692
:CTO002: CHARGE SPHERE  2    =    25.195777
:CTO003: CHARGE SPHERE  3    =    43.581525

:NEC03: NUCLEAR AND ELECTRONIC CHARGE    142.00000   142.00000

PW CHANGE     H    K    L      Current       Change    Residue
:PTO001:      0    0    0  4.22759968E-02  2.600E-05  1.651E-05
:PTO002:     -1   -1   -1 -1.16038448E-06  2.608E-06 -2.240E-05
:PTO003:      0    0   -2 -1.32603938E-02 -4.512E-05  5.024E-05
:PTO004:      0   -2   -2 -2.52042937E-04  1.957E-04 -3.702E-05
:PTO005:     -1   -1   -3 -5.14799600E-07  2.770E-06  4.697E-06
:PTO006:     -2   -2   -2  4.30833370E-03 -2.863E-05 -1.571E-05
:PTO007:      0    0   -4 -1.16830906E-02  2.904E-05 -6.808E-05
:PTO008:     -1   -3   -3  4.94843969E-07  3.185E-06  4.312E-05
:PTO009:      0   -2   -4  1.17943512E-02 -4.646E-06  3.645E-05
:PTO010:     -2   -2   -4 -1.99855512E-02  1.183E-05 -1.822E-04
:PTO011:     -3   -3   -3 -4.19475463E-07  2.735E-06  1.117E-05
:PTO012:     -1   -1   -5 -5.39480371E-07 -2.503E-06 -4.802E-06

:ENE  : ********** TOTAL ENERGY IN Ry =       -24232.07280840

 Flat Integration
 New Mode for Coulomb Integral
 Consistent 3/8+Simpson combinations
 Extension of core to zero
 LDM version in phi
 Fifth-order quadrature in outwin


            ---------
:ITE014: 14. ITERATION
            ---------

:NATO :    3 INDEPENDENT AND    4 TOTAL ATOMS IN UNITCELL
       SUBSTANCE: FeRh                                                        

       LATTICE                      = F   
:POT  : POTENTIAL OPTION EX_PBE EC_PBE VX_PBE VC_PBE
:LAT  : LATTICE CONSTANTS= 11.27222 11.27222 11.27222    1.571    1.571    1.571
:VOL  : UNIT CELL VOLUME =     358.07036
       MODE OF CALCULATION IS       = RELA
       NON-SPINPOLARIZED CALCULATION
:IFFT  : FFT-parameters:   90   90   90 Factor: 2.00


   CONVERGENCE PARAMETER FOR PSEUDOCHARGE: NCON=  9
   MAXIMAL VALUE OF RMT(JATOM)*ABSK(NKK) : RK  =29.05063


:VKCOUL :  VK-COUL convergence: 0.815E-07
       ATOMNUMBER=  1 Fe1        VCOUL-ZERO =  0.61834E+00
       ATOMNUMBER=  2 Fe2        VCOUL-ZERO =  0.61836E+00
       ATOMNUMBER=  3 Rh1        VCOUL-ZERO =  0.57171E+00
:FIT001: LUSE= 13 SIGMA OF V-XC FIT FOR ATOM  1  0.2173552E-02
:FIT001: LUSE= 13 SIGMA OF V-XC FIT FOR ATOM  1  0.2173552E-02
:FIT002: LUSE= 13 SIGMA OF V-XC FIT FOR ATOM  2  0.2173244E-02
:FIT002: LUSE= 13 SIGMA OF V-XC FIT FOR ATOM  2  0.2173244E-02
:FIT003: LUSE= 13 SIGMA OF V-XC FIT FOR ATOM  3  0.9953162E-03
:FIT003: LUSE= 13 SIGMA OF V-XC FIT FOR ATOM  3  0.9953162E-03
:DEN  : DENSITY INTEGRAL  =         -9853.47512941   (Ry)
       ELS_POTENTIAL_AT Z=0 and Z=0.5:  -0.16158  -0.16158
       ELS_POTENTIAL_AT Y=0 and Y=0.5:   0.00000   0.00000
:VZERO:v0,v0c,v0x  -0.80683  -0.16158  -0.64525 v5,v5c,v5x  -0.80683  -0.16158  -0.64525
:VZERY:v0,v0c,v0x  -0.78936   0.00000  -0.78936 v5,v5c,v5x  -0.78936   0.00000  -0.78936
:VZERX:v0,v0c,v0x  -0.78936   0.00000  -0.78936 v5,v5c,v5x  -0.78936   0.00000  -0.78936
:LMAX-WF:   10   Non-Spherical LMAX:   4

          ATOMIC SPHERE DEPENDENT PARAMETERS FOR ATOM  Fe1       
:e__0001: OVERALL ENERGY PARAMETER IS    0.4163
          OVERALL BASIS SET ON ATOM IS LAPW
:E1_0001: E( 1)=    0.4163
             APW+lo
:E1_0001: E( 1)=   -3.2816   E(BOTTOM)=   -3.313   E(TOP)=   -3.251  1  2   175
             LOCAL ORBITAL
:E2_0001: E( 2)=    0.5233   E(BOTTOM)=    0.296   E(TOP)=    0.751  0  1   125
             APW+lo
:E0_0001: E( 0)=    0.4163
             APW+lo

          ATOMIC SPHERE DEPENDENT PARAMETERS FOR ATOM  Fe2       
:e__0002: OVERALL ENERGY PARAMETER IS    0.4163
          OVERALL BASIS SET ON ATOM IS LAPW
:E1_0002: E( 1)=    0.4163
             APW+lo
:E1_0002: E( 1)=   -3.2815   E(BOTTOM)=   -3.312   E(TOP)=   -3.251  1  2   166
             LOCAL ORBITAL
:E2_0002: E( 2)=    0.5234   E(BOTTOM)=    0.296   E(TOP)=    0.751  0  1   128
             APW+lo
:E0_0002: E( 0)=    0.4163
             APW+lo

          ATOMIC SPHERE DEPENDENT PARAMETERS FOR ATOM  Rh1       
:e__0003: OVERALL ENERGY PARAMETER IS    0.4163
          OVERALL BASIS SET ON ATOM IS LAPW
:E1_0003: E( 1)=    0.4163
             APW+lo
:E1_0003: E( 1)=   -2.8228   E(BOTTOM)=   -2.916   E(TOP)=   -2.730  2  3   151
             LOCAL ORBITAL
:E2_0003: E( 2)=    0.4711   E(BOTTOM)=    0.042   E(TOP)=    0.900  1  2   141
             APW+lo
:E0_0003: E( 0)=    0.4163
             APW+lo

       K=   0.00000   0.00000   0.00000            1
:RKM  : MATRIX SIZE   185LOs:  48  RKM= 6.64  WEIGHT= 1.00  PGR:    
       EIGENVALUES ARE:
:EIG00001:      -3.2758439   -3.2758439   -3.2758439   -3.2742309   -3.2742309
:EIG00006:      -3.2742309   -2.8067236   -2.8067236   -2.8067236   -2.7998459
:EIG00011:      -2.7998459   -2.7998459    0.0340107    0.2482660    0.2482660
:EIG00016:       0.3119169    0.3119169    0.3119169    0.4565449    0.4565449
:EIG00021:       0.4565449    0.4602196    0.4602196    0.4602196    0.6019035
:EIG00026:       0.6019035    0.6190026    0.6190026    0.6295394    0.6295394
:EIG00031:       0.6811432    0.6811432    0.6811432    1.2226692    1.2529875
:EIG00036:       1.2529875    1.2529875    1.2873296    1.2873296    1.2873296
:EIG00041:       1.3605187    1.3605187    1.3605187    1.4293792    1.9171055
:EIG00046:       1.9171055    2.0235804
 
       ********************************************************

:KPT   :      NUMBER OF K-POINTS:    72
:GAP (global)   :    0.0    Ry =     0.0   eV (metal)
         Bandranges (emin - emax) and occupancy:
:BAN00021:  21    0.391112    0.459850  2.00000000
:BAN00022:  22    0.391112    0.510886  2.00000000
:BAN00023:  23    0.398599    0.541070  2.00000000
:BAN00024:  24    0.398627    0.557539  2.00000000
:BAN00025:  25    0.537389    0.601903  2.00000000
:BAN00026:  26    0.556595    0.609480  2.00000000
:BAN00027:  27    0.565798    0.619003  1.99860628
:BAN00028:  28    0.571735    0.619003  1.98786060
:BAN00029:  29    0.595243    0.656159  1.55448979
:BAN00030:  30    0.603060    0.656159  0.45808852
:BAN00031:  31    0.614885    0.683462  0.00095480
:BAN00032:  32    0.625690    0.689378  0.00000000
:BAN00033:  33    0.635176    0.700694  0.00000000
:BAN00034:  34    0.668423    1.222669  0.00000000
:BAN00035:  35    0.702092    1.252988  0.00000000
:BAN00036:  36    0.715316    1.252988  0.00000000
        Energy to separate low and high energystates:   -0.01599


:NOE  : NUMBER OF ELECTRONS          =   58.000

:FER  : F E R M I - ENERGY(TETRAH.M.)=   0.6157959370
:GMA  : POTENTIAL AND CHARGE CUT-OFF  12.00 Ry**.5

:POS001: ATOM    1 X,Y,Z = 0.00000 0.00000 0.00000  MULT= 1  ZZ= 26.000  Fe1       

       LMMAX  5
       LM=   0 0  4 0  4 4  6 0  6 4

:CHA001: TOTAL VALENCE CHARGE INSIDE SPHERE   1 =  13.2007    (RMT=  2.4300 )
:PCS001: PARTIAL CHARGES SPHERE =  1 S,P,D,F,      D-EG,D-T2G 
:QTL001: 0.4425 6.4389 6.2542 0.0469 0.0000 0.0000 0.0000 2.4574 3.7967 0.0000 0.0000 0.0000
        Q-s-low E-s-low   Q-p-low E-p-low   Q-d-low E-d-low   Q-f-low E-f-low
:EPL001:  0.0009 -2.8117    5.9907 -3.2748    0.0024 -2.8077    0.0010 -2.8085
        Q-s-hi  E-s-hi    Q-p-hi  E-p-hi    Q-d-hi  E-d-hi    Q-f-hi  E-f-hi 
:EPH001:  0.4416  0.2555    0.4482  0.3831    6.2518  0.5020    0.0459  0.4407

:POS002: ATOM    2 X,Y,Z = 0.50000 0.00000 0.00000  MULT= 1  ZZ= 26.000  Fe2       

       LMMAX  5
       LM=   0 0  4 0  4 4  6 0  6 4

:CHA002: TOTAL VALENCE CHARGE INSIDE SPHERE   2 =  13.1926    (RMT=  2.4300 )
:PCS002: PARTIAL CHARGES SPHERE =  2 S,P,D,F,      D-EG,D-T2G 
:QTL002: 0.4425 6.4389 6.2461 0.0469 0.0000 0.0000 0.0000 2.4508 3.7953 0.0000 0.0000 0.0000
        Q-s-low E-s-low   Q-p-low E-p-low   Q-d-low E-d-low   Q-f-low E-f-low
:EPL002:  0.0009 -2.8117    5.9907 -3.2748    0.0024 -2.8077    0.0010 -2.8085
        Q-s-hi  E-s-hi    Q-p-hi  E-p-hi    Q-d-hi  E-d-hi    Q-f-hi  E-f-hi 
:EPH002:  0.4416  0.2555    0.4481  0.3831    6.2437  0.5019    0.0459  0.4407

:POS003: ATOM    3 X,Y,Z = 0.25000 0.25000 0.25000  MULT= 2  ZZ= 45.000  Rh1       

       LMMAX  6
       LM=   0 0  4 0  4 4  6 0  6 4 -3 2

:CHA003: TOTAL VALENCE CHARGE INSIDE SPHERE   3 =  13.5839    (RMT=  2.4300 )
:PCS003: PARTIAL CHARGES SPHERE =  3 S,P,D,F,      D-EG,D-T2G 
:QTL003: 0.3585 6.2942 6.8811 0.0392 0.0000 0.0000 0.0000 2.7424 4.1387 0.0000 0.0000 0.0000
        Q-s-low E-s-low   Q-p-low E-p-low   Q-d-low E-d-low   Q-f-low E-f-low
:EPL003:  0.0003 -3.2090    5.9621 -2.8038    0.0007 -3.2180    0.0004 -3.2140
        Q-s-hi  E-s-hi    Q-p-hi  E-p-hi    Q-d-hi  E-d-hi    Q-f-hi  E-f-hi 
:EPH003:  0.3583  0.2725    0.3321  0.4142    6.8803  0.4162    0.0389  0.4880

:CHA  : TOTAL VALENCE CHARGE INSIDE UNIT CELL =      58.000000

:SUM  : SUM OF EIGENVALUES =         -58.226010051


        1.ATOM      Fe1                   5 CORE STATES
:1S 001: 1S                -513.178670959 Ry
:2S 001: 2S                 -59.102132447 Ry
:2PP001: 2P*                -50.804500715 Ry
:2P 001: 2P                 -49.887064262 Ry
:3S 001: 3S                  -5.768886282 Ry

        2.ATOM      Fe2                   5 CORE STATES
:1S 002: 1S                -513.178526534 Ry
:2S 002: 2S                 -59.101993474 Ry
:2PP002: 2P*                -50.804360432 Ry
:2P 002: 2P                 -49.886924107 Ry
:3S 002: 3S                  -5.768788572 Ry

        3.ATOM      Rh1                  10 CORE STATES
:1S 003: 1S               -1691.540224667 Ry
:2S 003: 2S                -244.435566048 Ry
:2PP003: 2P*               -226.245372223 Ry
:2P 003: 2P                -215.616124869 Ry
:3S 003: 3S                 -42.961841194 Ry
:3PP003: 3P*                -35.843938766 Ry
:3P 003: 3P                 -34.015060279 Ry
:3DD003: 3D*                -21.418413942 Ry
:3D 003: 3D                 -21.057686035 Ry
:4S 003: 4S                  -5.165795831 Ry
:CINT001 Core Integral Atom   1   11.999269
:CINT002 Core Integral Atom   2   11.999269
:CINT003 Core Integral Atom   3   29.997494

       DENSITY AT NUCLEUS
        JATOM        VALENCE       SEMI-CORE          CORE           TOTAL
:RTO001:   1        6.436143        0.000000    15302.964690    15309.400834
:RTO002:   2        6.436503        0.000000    15302.963763    15309.400266
:RTO003:   3       23.221372        0.000000   155315.540806   155338.762177
     
       CHARGES OF NEW CHARGE DENSITY
:NTO   : INTERSTITIAL CHARGE =     4.438890
:NPC   : PW Pseudocharge     =    10.671781
:NTO001: CHARGE SPHERE  1    =    25.199927
:NTO002: CHARGE SPHERE  2    =    25.191880
:NTO003: CHARGE SPHERE  3    =    43.581383

:NEC01: NUCLEAR AND ELECTRONIC CHARGE    142.00000   141.99346
     
       CHARGES OF OLD CHARGE DENSITY
:OTO   : INTERSTITIAL CHARGE =     4.445481
:OPC   : PW Pseudocharge     =    10.692301
:OTO001: CHARGE SPHERE  1    =    25.195692
:OTO002: CHARGE SPHERE  2    =    25.195777
:OTO003: CHARGE SPHERE  3    =    43.581525

:NEC02: NUCLEAR AND ELECTRONIC CHARGE    142.00000   142.00000
     
       CONVERGENCE TEST
:DTO001: DIFFERENCE IN SPHERE  1 =  0.0040312
:DTO002: DIFFERENCE IN SPHERE  2 =  0.0054484
:DTO003: DIFFERENCE IN SPHERE  3 =  0.0015560

:DIS  :  CHARGE DISTANCE       ( 0.0054484 for atom    2 spin 1)      0.0031479
 PW Mixed is           49
 
******************************************************
* MULTISECANT MIXING VER9 RELEASE 10.4.0              *
* Standard Mode with controls                        *
* Fixed density scale                                *
* Regularization       1.000E-04                     *
* Trust Upper Limit    5.000E+00                     *
* Max Number of Memory Steps    8                    *
******************************************************
 
:PWTMP   1.1765E+02  4.5917E+02  3.5807E+02
:PLANE:  PW TOTAL      1.6604 DISTAN   3.50E-03  2.11E-01 %
:CHARG:  CLM/ATOM    299.8732 DISTAN   2.86E-03  9.55E-04 %
 
Step History
        DMIX         DMIXT        Red     Pred      Trust     Lambda    MagRel    MagAbs     Beta
  6   8.8806E-02   8.8806E-02  5.48E-01  4.80E-01  5.02E-01  2.33E+00  3.14E-01  2.43E-01  1.00E+00
  7   9.5345E-02   9.5345E-02  6.30E-01  6.21E-01  6.69E-01  8.99E-01  2.33E-01  9.84E-02  1.00E+00
  8   2.3836E-01   2.3836E-01  5.00E+00  5.10E-01  1.51E+00  1.35E+00  6.73E-01  1.79E-01  1.00E+00
  9   9.7480E-02   9.7480E-02  1.13E-01  7.91E-02  1.80E+00  2.02E+00  1.40E-02  2.51E-02  9.38E-01
 10   8.6381E-02   8.6381E-02  3.95E-01  3.67E-01  2.40E+00  2.66E+00  6.88E-02  1.40E-02  1.00E+00
 11   1.5772E-01   1.5772E-01  2.01E+00  9.44E-01  2.87E+00  2.50E+00  5.32E-01  4.27E-02  1.00E+00
 12   1.9953E-01   1.9953E-01  1.80E-01  1.05E-01  2.15E+00  2.59E+00  9.78E-02  1.58E-02  1.00E+00
 13   1.4549E-01   1.4549E-01  1.41E+00  4.04E-01  2.87E+00  2.63E+00  1.70E-01  4.94E-03  1.00E+00
 14   2.7554E-01   2.7554E-01 -1.00E+00  1.89E-01  2.15E+00  1.00E+00  2.88E-01  1.18E-02  1.00E+00
:JACOBIANS    8.770E-01   2.194E+00
  
:NORMS:  1/Froebius, Min, Max, Used   0.5338E+00  0.4169E+00  0.9887E+00  0.6496E+00
:INFO :  Number of Memory Steps    8 Skipping    5
:INFO :  SLambda=    2.3986032369  Max    2.3986032369
:PREDicted Charge, CTotal, PW Trust    9.665E-04   1.844E-03   5.338E-03
:PREDicted DMix, Beta, BLim   1.3866E-01  9.9644E-01  5.8606E-01

Eigenvalues, unscaled except for SY+YY
   #     SY Real        SY Imag          SS             YY         SY+YY Real      SY+YY Imag
   1   1.599153E+00   0.000000E+00   1.551517E+00   3.676414E+00   6.070362E+00   0.000000E+00
   2   7.293378E-01   0.000000E+00   5.826006E-01   2.016535E+00   3.800379E+00   0.000000E+00
   3   2.566356E-01   0.000000E+00   1.404873E-01   1.367617E+00   2.511562E+00   0.000000E+00
   4   5.556448E-02   0.000000E+00   3.063410E-03   7.302956E-01   1.570546E+00   0.000000E+00
   5   1.487912E-02   0.000000E+00   1.923580E-03   1.698781E-01   3.749421E-01   0.000000E+00
   6   8.777614E-03   0.000000E+00   2.377697E-04   3.687067E-02   6.033178E-02   0.000000E+00
   7   4.656016E-04   0.000000E+00   7.619092E-05   2.167982E-03   3.483867E-03   0.000000E+00
   8   6.827699E-05   0.000000E+00   3.250965E-05   2.217242E-04   3.850045E-04   0.000000E+00
 
:INFO :  Singular value  6.129E+00 Weight  1.000E+00 Projection -2.235E-03
:INFO :  Singular value  3.792E+00 Weight  1.000E+00 Projection  1.631E-03
:INFO :  Singular value  2.509E+00 Weight  1.000E+00 Projection -1.909E-03
:INFO :  Singular value  1.564E+00 Weight  1.000E+00 Projection -2.617E-03
:INFO :  Singular value  3.750E-01 Weight  1.000E+00 Projection -6.495E-03
:INFO :  Singular value  6.029E-02 Weight  1.000E+00 Projection  9.941E-03
:INFO :  Singular value  3.477E-03 Weight  9.889E-01 Projection  3.870E-02
:INFO :  Singular value  3.850E-04 Weight  5.230E-01 Projection -5.866E-02
:RANK :  ACTIVE   7.51/8  =  93.90 % ; YY RANK   7.24/8  =  90.48 %
 
:DLIM :  Beta Active  9.973E-01
:BLIM :  VZERO Control Off
:TRUST:  Step 2.87E+00  Charge 3.02E-02 (e) CTO  6.55E-02 (e) PW  8.28E-02 (e)
:DIRM :  MEMORY  8/8  SCALE   1.000 RED  0.23 PRED  0.19 NEXT  0.50 BETA  1.00
:TRAVE:  Charge 1.40E-03 (e) CTO  2.06E-03 (e) PW  4.06E-03 (e)
:DIRP :  |MSR1|= 1.341E-03 |PRATT|= 3.504E-03 ANGLE=  42.2 DEGREES
:DIRQ :  |MSR1|= 2.494E-03 |PRATT|= 8.592E-03 ANGLE=  65.7 DEGREES
:DIRT :  |MSR1|= 2.831E-03 |PRATT|= 9.279E-03 ANGLE=  62.1 DEGREES
:MIX  :   MSE1   REGULARIZATION:  3.68E-04 GREED: 0.17721  Newton 1.00  0.3051                
     
       CHARGES OF MIXED CHARGE DENSITY
:CTO   : INTERSTITIAL CHARGE =     4.445432
:CPC   : PW Pseudocharge     =    10.696329
:CTO001: CHARGE SPHERE  1    =    25.195814
:CTO002: CHARGE SPHERE  2    =    25.195896
:CTO003: CHARGE SPHERE  3    =    43.581429

:NEC03: NUCLEAR AND ELECTRONIC CHARGE    142.00000   142.00000

PW CHANGE     H    K    L      Current       Change    Residue
:PTO001:      0    0    0  4.22871087E-02  1.111E-05 -1.356E-05
:PTO002:     -1   -1   -1 -6.93755911E-07  4.666E-07  7.581E-06
:PTO003:      0    0   -2 -1.32640917E-02 -3.698E-06  3.478E-05
:PTO004:      0   -2   -2 -2.82890853E-04 -3.085E-05 -2.132E-04
:PTO005:     -1   -1   -3 -3.31254084E-07  1.835E-07 -4.836E-07
:PTO006:     -2   -2   -2  4.31340961E-03  5.076E-06  2.996E-05
:PTO007:      0    0   -4 -1.17167535E-02 -3.366E-05 -9.363E-05
:PTO008:     -1   -3   -3  3.62241290E-07 -1.326E-07 -1.267E-05
:PTO009:      0   -2   -4  1.18318605E-02  3.751E-05  8.225E-05
:PTO010:     -2   -2   -4 -2.01041885E-02 -1.186E-04 -2.110E-04
:PTO011:     -3   -3   -3 -2.64943175E-07  1.545E-07 -2.496E-06
:PTO012:     -1   -1   -5 -2.23040110E-07  3.164E-07  2.563E-06

:ENE  : ********** TOTAL ENERGY IN Ry =       -24232.07279182

