
:LABEL1: Calculations in /home/cmueller/wien/FZU/src/perovskite/1000k_lda
:LABEL2: on cv036 at Thu Jun 20 06:16:27 PM CEST 2024
:LABEL3: using WIEN2k_19.1 (Release 25/6/2019) in /home/cmueller/WIENROOT
:LABEL4: using the command: run_lapw
 Flat Integration
 New Mode for Coulomb Integral
 Consistent 3/8+Simpson combinations
 Extension of core to zero
 LDM version in phi
 Fifth-order quadrature in outwin


            ---------
:ITE001:  1. ITERATION
            ---------

:NATO :    4 INDEPENDENT AND   20 TOTAL ATOMS IN UNITCELL
       SUBSTANCE: blebleble                                                   

       LATTICE                      = P   
:POT  : POTENTIAL OPTION EX_LDA EC_LDA VX_LDA VC_LDA
:LAT  : LATTICE CONSTANTS= 15.19415 15.66734 22.08372    1.571    1.571    1.571
:VOL  : UNIT CELL VOLUME =    5257.07306
       MODE OF CALCULATION IS       = RELA
       NON-SPINPOLARIZED CALCULATION
:IFFT  : FFT-parameters:  120  120  180 Factor: 2.00


   CONVERGENCE PARAMETER FOR PSEUDOCHARGE: NCON=  9
   MAXIMAL VALUE OF RMT(JATOM)*ABSK(NKK) : RK  =29.99804


:VKCOUL :  VK-COUL convergence: 0.429E-07
       ATOMNUMBER=  1 Pb         VCOUL-ZERO =  0.11073E+00
:EFG001:                        EFG         =     0.00537   *10**21  V / m**2
                               V20  TOT/SRF=     0.00103     0.00186
                               V22  TOT/SRF=    -0.00029    -0.00079
                               V22M TOT/SRF=    -0.00028    -0.00093
                               V21  TOT/SRF=     0.00219     0.00307
                               V21M TOT/SRF=    -0.00430    -0.00472

             -0.00088   -0.00028    0.00219       -0.00099    0.00000    0.00000
             -0.00028   -0.00031   -0.00430        0.00000    0.00537    0.00000
              0.00219   -0.00430    0.00119        0.00000    0.00000   -0.00437

         MAIN DIRECTIONS OF THE EFG   1.0000  0.3851 -0.5334
                                      0.5171 -0.7768  1.0000
                                      0.0166  1.0000  0.9822
:ANG001:  ANGLE WITH OLD X-AXIS =        33.3

:ETA001:                         ASYMM. ETA =     0.62955


       ATOMNUMBER=  2 Cs         VCOUL-ZERO = -0.51526E-01
:EFG002:                        EFG         =     0.00071   *10**21  V / m**2
                               V20  TOT/SRF=    -0.00032    -0.00028
                               V22  TOT/SRF=    -0.00027    -0.00055
                               V22M TOT/SRF=    -0.00045    -0.00137
                               V21  TOT/SRF=     0.00000     0.00000
                               V21M TOT/SRF=     0.00000     0.00000

             -0.00009   -0.00045    0.00000       -0.00034    0.00000    0.00000
             -0.00045    0.00046    0.00000        0.00000    0.00071    0.00000
              0.00000    0.00000   -0.00037        0.00000    0.00000   -0.00037

         MAIN DIRECTIONS OF THE EFG   1.0000 -0.5615  0.0000
                                      0.5615  1.0000  0.0000
                                      0.0000  0.0000  1.0000
:ANG002:  ANGLE WITH OLD X-AXIS =        29.3

:ETA002:                         ASYMM. ETA =     0.04192


       ATOMNUMBER=  3 Br         VCOUL-ZERO =  0.27765E+00
:EFG003:                        EFG         =     0.02110   *10**21  V / m**2
                               V20  TOT/SRF=     0.01827     0.05852
                               V22  TOT/SRF=     0.00381     0.00534
                               V22M TOT/SRF=    -0.00983    -0.01102
                               V21  TOT/SRF=     0.00000     0.00000
                               V21M TOT/SRF=     0.00000     0.00000

             -0.00674   -0.00983    0.00000       -0.00000    0.00000    0.00000
             -0.00983   -0.01436    0.00000        0.00000   -0.02109    0.00000
              0.00000    0.00000    0.02110        0.00000    0.00000    0.02110

         MAIN DIRECTIONS OF THE EFG   1.0000  0.6852  0.0000
                                     -0.6852  1.0000  0.0000
                                      0.0000  0.0000  1.0000
:ANG003:  ANGLE WITH OLD X-AXIS =        34.4

:ETA003:                         ASYMM. ETA =     0.99969


       ATOMNUMBER=  4 Br         VCOUL-ZERO =  0.27761E+00
:EFG004:                        EFG         =     0.02092   *10**21  V / m**2
                               V20  TOT/SRF=    -0.00597    -0.02519
                               V22  TOT/SRF=    -0.00300    -0.00425
                               V22M TOT/SRF=    -0.01536    -0.04808
                               V21  TOT/SRF=    -0.00411    -0.00376
                               V21M TOT/SRF=     0.00583     0.00766

              0.00045   -0.01536   -0.00411        0.02092    0.00000    0.00000
             -0.01536    0.00645    0.00583        0.00000   -0.01228    0.00000
             -0.00411    0.00583   -0.00689        0.00000    0.00000   -0.00864

         MAIN DIRECTIONS OF THE EFG  -0.8166  1.0000  0.2792
                                      1.0000  0.8791 -0.1024
                                      0.3304 -0.1892  1.0000
:ANG004:  ANGLE WITH OLD X-AXIS =       128.2

:ETA004:                         ASYMM. ETA =     0.17429


     HELLMANN-FEYNMAN-FORCE IN mRy/a.u. = |F|  Fx       Fy             Fz
:FHF001:   1.ATOM      0.000000000000      0.000000000000      0.000000000000      0.000000000000

     HELLMANN-FEYNMAN-FORCE IN mRy/a.u. = |F|  Fx       Fy             Fz
:FHF002:   2.ATOM     10.871574042724     10.867401425519      0.301178390759      0.000000000000

     HELLMANN-FEYNMAN-FORCE IN mRy/a.u. = |F|  Fx       Fy             Fz
:FHF003:   3.ATOM    205.527777635477    -88.820811354326   -185.344357481250      0.000000000000

     HELLMANN-FEYNMAN-FORCE IN mRy/a.u. = |F|  Fx       Fy             Fz
:FHF004:   4.ATOM    162.795563525568     52.684496468033    100.244259898757    116.952245351971

:FIT001: LUSE= 13 SIGMA OF V-XC FIT FOR ATOM  1  0.1524761E-03
:FIT001: LUSE= 13 SIGMA OF V-XC FIT FOR ATOM  1  0.1524761E-03
:FIT002: LUSE= 13 SIGMA OF V-XC FIT FOR ATOM  2  0.7047190E-06
:FIT002: LUSE= 13 SIGMA OF V-XC FIT FOR ATOM  2  0.7047190E-06
:FIT003: LUSE= 13 SIGMA OF V-XC FIT FOR ATOM  3  0.1790486E-03
:FIT003: LUSE= 13 SIGMA OF V-XC FIT FOR ATOM  3  0.1790486E-03
:FIT004: LUSE= 13 SIGMA OF V-XC FIT FOR ATOM  4  0.1852389E-03
:FIT004: LUSE= 13 SIGMA OF V-XC FIT FOR ATOM  4  0.1852389E-03
:DEN  : DENSITY INTEGRAL  =       -113971.07406536   (Ry)
       ELS_POTENTIAL_AT Z=0 and Z=0.5:  -0.57538  -0.57538
       ELS_POTENTIAL_AT Y=0 and Y=0.5:  -0.47825  -0.47825
:VZERO:v0,v0c,v0x  -1.33364  -0.57538  -0.75826 v5,v5c,v5x  -1.33364  -0.57538  -0.75826
:VZERY:v0,v0c,v0x  -1.15881  -0.47825  -0.68056 v5,v5c,v5x  -1.15881  -0.47825  -0.68056
:VZERX:v0,v0c,v0x  -1.15386  -0.48020  -0.67366 v5,v5c,v5x  -1.15386  -0.48020  -0.67366
:LMAX-WF:   10   Non-Spherical LMAX:   4

          ATOMIC SPHERE DEPENDENT PARAMETERS FOR ATOM  Pb        
:e__0001: OVERALL ENERGY PARAMETER IS    0.3000
          OVERALL BASIS SET ON ATOM IS LAPW
:E2_0001: E( 2)=    0.7000
             APW+lo
:E2_0001: E( 2)=   -0.9532   E(BOTTOM)=   -1.193   E(TOP)=   -0.713  2  3   123
             LOCAL ORBITAL
:E0_0001: E( 0)=    0.3000
             APW+lo
:E1_0001: E( 1)=    0.3000
             APW+lo

          ATOMIC SPHERE DEPENDENT PARAMETERS FOR ATOM  Cs        
:e__0002: OVERALL ENERGY PARAMETER IS    0.3000
          OVERALL BASIS SET ON ATOM IS LAPW
:E2_0002: E( 2)=    0.3000
             APW+lo
:E2_0002: E( 2)=   -4.8662   E(BOTTOM)=   -4.878   E(TOP)=   -4.854  1  2   118
             LOCAL ORBITAL
:E0_0002: E( 0)=    0.7000
             APW+lo
:E0_0002: E( 0)=   -1.3873   E(BOTTOM)=   -2.061   E(TOP)=   -0.714  4  5   172
             LOCAL ORBITAL
:E1_0002: E( 1)=    0.7000
             APW+lo
:E1_0002: E( 1)=   -0.2082   E(BOTTOM)=   -1.171   E(TOP)=    0.754  3  4   201
             LOCAL ORBITAL

          ATOMIC SPHERE DEPENDENT PARAMETERS FOR ATOM  Br        
:e__0003: OVERALL ENERGY PARAMETER IS    0.3000
          OVERALL BASIS SET ON ATOM IS LAPW
:E2_0003: E( 2)=    0.3000
             APW+lo
:E2_0003: E( 2)=   -4.3668   E(BOTTOM)=   -4.370   E(TOP)=   -4.364  1  1   118
             LOCAL ORBITAL
:E0_0003: E( 0)=    0.7000
             APW+lo
:E0_0003: E( 0)=   -0.9654   E(BOTTOM)=   -1.523   E(TOP)=   -0.407  3  4   156
             LOCAL ORBITAL
:E1_0003: E( 1)=    0.3000
             APW+lo

          ATOMIC SPHERE DEPENDENT PARAMETERS FOR ATOM  Br        
:e__0004: OVERALL ENERGY PARAMETER IS    0.3000
          OVERALL BASIS SET ON ATOM IS LAPW
:E2_0004: E( 2)=    0.3000
             APW+lo
:E2_0004: E( 2)=   -4.3669   E(BOTTOM)=   -4.370   E(TOP)=   -4.364  0  1   118
             LOCAL ORBITAL
:E0_0004: E( 0)=    0.7000
             APW+lo
:E0_0004: E( 0)=   -0.9655   E(BOTTOM)=   -1.523   E(TOP)=   -0.408  3  4   156
             LOCAL ORBITAL
:E1_0004: E( 1)=    0.3000
             APW+lo

       K=   0.04545   0.04545   0.07143            1
:RKM  : MATRIX SIZE  2239LOs: 308  RKM= 7.00  WEIGHT= 8.00  PGR:    
       EIGENVALUES ARE:
:EIG00001:      -4.8634282   -4.8634192   -4.8634083   -4.8634073   -4.8634055
:EIG00006:      -4.8633982   -4.8633949   -4.8633940   -4.8633908   -4.8633777
:EIG00011:      -4.8633714   -4.8633695   -4.8633551   -4.8633523   -4.8633368
:EIG00016:      -4.8633264   -4.8633237   -4.8633231   -4.8633117   -4.8633016
:EIG00021:      -4.3666277   -4.3666203   -4.3666167   -4.3666146   -4.3666106
:EIG00026:      -4.3666103   -4.3666052   -4.3665989   -4.3665371   -4.3665324
:EIG00031:      -4.3665307   -4.3665255   -4.3663426   -4.3663404   -4.3663362
:EIG00036:      -4.3663295   -4.3663281   -4.3663265   -4.3663196   -4.3663090
:EIG00041:      -4.3662904   -4.3662755   -4.3662741   -4.3662726   -4.3662718
:EIG00046:      -4.3662689   -4.3662610   -4.3662585   -4.3662482   -4.3662459
 
:EIG00051:      -4.3662431   -4.3662362   -4.3660032   -4.3659988   -4.3659928
:EIG00056:      -4.3659887   -4.3658332   -4.3658317   -4.3658241   -4.3658237
:EIG00061:      -4.3658172   -4.3658138   -4.3658103   -4.3658046   -4.3657930
:EIG00066:      -4.3657856   -4.3657776   -4.3657743   -4.3657737   -4.3657708
:EIG00071:      -4.3657639   -4.3657628   -4.3656698   -4.3656634   -4.3656602
:EIG00076:      -4.3656569   -4.3656007   -4.3655991   -4.3655946   -4.3655881
:EIG00081:      -1.3935917   -1.3934226   -1.3932343   -1.3931278   -0.9863882
:EIG00086:      -0.9862725   -0.9860742   -0.9859798   -0.9858642   -0.9853955
:EIG00091:      -0.9672615   -0.9670519   -0.9667193   -0.9665813   -0.9662249
:EIG00096:      -0.9657828   -0.9198281   -0.9197013   -0.9192692   -0.9124287
 
:EIG00101:      -0.9122925   -0.9122267   -0.9121492   -0.9120781   -0.9120293
:EIG00106:      -0.9116524   -0.9116174   -0.9114709   -0.9114256   -0.9112945
:EIG00111:      -0.9111418   -0.9095635   -0.8980476   -0.8868634   -0.8865640
:EIG00116:      -0.8860332   -0.4364161   -0.4324710   -0.4297202   -0.4292760
:EIG00121:      -0.4275802   -0.4270044   -0.4263729   -0.4251287   -0.4249485
:EIG00126:      -0.4246965   -0.4240275   -0.4232334   -0.4225749   -0.3936967
:EIG00131:      -0.3541418   -0.2945060   -0.1690824   -0.1682577   -0.1654299
:EIG00136:      -0.1611351   -0.1593007   -0.1502292   -0.1183100   -0.1002901
:EIG00141:      -0.0960216   -0.0943388   -0.0929728   -0.0862634   -0.0769091
:EIG00146:      -0.0711755   -0.0689026   -0.0660305   -0.0631417   -0.0607239
 
:EIG00151:      -0.0593603   -0.0573470   -0.0568243   -0.0556780   -0.0488587
:EIG00156:      -0.0443527   -0.0439171   -0.0435221   -0.0412094   -0.0396941
:EIG00161:      -0.0384621   -0.0360506   -0.0345167   -0.0341720   -0.0169704
:EIG00166:       0.0356052    0.0832329    0.1360048    0.3079627    0.3117064
:EIG00171:       0.3154675    0.3410331    0.3543734    0.3651135    0.3728419
:EIG00176:       0.4505974    0.4553473    0.4625726    0.4669684    0.5000907
:EIG00181:       0.5011475    0.5044610    0.5153838    0.5160572    0.5196858
:EIG00186:       0.5207328    0.5246818    0.5273475    0.5430344    0.5437358
:EIG00191:       0.5471863    0.5520603    0.5685622    0.5740486    0.5768899
:EIG00196:       0.5839029    0.5850490    0.5898574    0.5929645    0.5981310
 
:EIG00201:       0.6064959    0.6112377    0.6189858    0.6280371    0.6305820
:EIG00206:       0.6456536    0.6508950    0.6601823    0.6681535    0.6709300
:EIG00211:       0.6833622    0.7020708    0.7120536    0.7186669    0.7258308
:EIG00216:       0.7300140    0.7326109    0.7374606    0.7469448    0.7566172
:EIG00221:       0.7574885    0.7612962    0.7655263    0.8049462    0.8222940
:EIG00226:       0.8279372    0.8315875    0.8352259    0.8370271    0.8402313
:EIG00231:       0.8436341    0.8538430    0.8676401    0.8700890    0.8806071
:EIG00236:       0.8962628    0.9080631    0.9151986    0.9202243    0.9257140
:EIG00241:       0.9275702    0.9399907    0.9480768    0.9574065    0.9707307
:EIG00246:       0.9751763    0.9806876    0.9843622    0.9851868    0.9879462
 
:EIG00251:       0.9980953    1.0017204    1.0137878    1.0310381    1.0366909
:EIG00256:       1.0444516    1.0488462    1.0556728    1.0594895    1.0622388
:EIG00261:       1.0645241    1.0683292    1.0715241    1.0753229    1.0805067
:EIG00266:       1.0848038    1.0893609    1.0953536    1.0995704    1.1055952
:EIG00271:       1.1091551    1.1128261    1.1191397    1.1215130    1.1287036
:EIG00276:       1.1340232    1.1367759    1.1421128    1.1434291    1.1470137
:EIG00281:       1.1509986    1.1560680    1.1588132    1.1590961    1.1660833
:EIG00286:       1.1666910    1.1744631    1.1789063    1.1871959    1.1931360
:EIG00291:       1.1970104    1.1974305    1.2024791    1.2074882    1.2099565
:EIG00296:       1.2131478    1.2203964    1.2222367    1.2280238    1.2332283
 
:EIG00301:       1.2427763    1.2458742    1.2521321    1.2550846    1.2591568
:EIG00306:       1.2662055    1.2800207    1.2824943    1.2865745    1.2883923
:EIG00311:       1.2949615    1.3022860    1.3111537    1.3150336    1.3289693
:EIG00316:       1.3328548    1.3423244    1.3451429    1.3501813    1.3560135
:EIG00321:       1.3585860    1.3613068    1.3732769    1.3803740    1.3818852
:EIG00326:       1.3898063    1.3950779    1.4000578    1.4046614    1.4062337
:EIG00331:       1.4146965    1.4165443    1.4229871    1.4263270    1.4367120
:EIG00336:       1.4383365    1.4433349    1.4445736    1.4501603    1.4538312
:EIG00341:       1.4580106    1.4622033    1.4690847    1.4704525    1.4732846
:EIG00346:       1.4819445    1.4856737    1.4899526    1.4939807    1.4968311
 
:EIG00351:       1.5005868    1.5041244    1.5137786    1.5143605    1.5237118
:EIG00356:       1.5332367    1.5341420    1.5445848    1.5506947    1.5551494
:EIG00361:       1.5620776    1.5655535    1.5795567    1.5825429    1.5933879
:EIG00366:       1.5994932    1.6055612    1.6093059    1.6127587    1.6247521
:EIG00371:       1.6274363    1.6298178    1.6354422    1.6445091    1.6465362
:EIG00376:       1.6484563    1.6501932    1.6586598    1.6666500    1.6785957
:EIG00381:       1.6797567    1.6833952    1.6891550    1.6928998    1.6972517
:EIG00386:       1.7012017    1.7054946    1.7101375    1.7154808    1.7168736
:EIG00391:       1.7193809    1.7236686    1.7305594    1.7316101    1.7387147
:EIG00396:       1.7425977    1.7545218    1.7579895    1.7618505    1.7626155
 
:EIG00401:       1.7747870    1.7769854    1.7836537    1.7875734    1.7893560
:EIG00406:       1.7963601    1.7974284    1.8012453    1.8037204    1.8085424
:EIG00411:       1.8117763    1.8164930    1.8224155    1.8330320    1.8449110
:EIG00416:       1.8513801    1.8542209    1.8561068    1.8670524    1.8685213
:EIG00421:       1.8715316    1.8778171    1.8824039    1.8863948    1.8899370
:EIG00426:       1.8965821    1.9019777    1.9052841    1.9100345    1.9145777
:EIG00431:       1.9202008    1.9250155    1.9303448    1.9353486    1.9442616
:EIG00436:       1.9482096    1.9505919    1.9569521    1.9648234    1.9683776
:EIG00441:       1.9718975    1.9767536    1.9881509    1.9935690    1.9963039
       ********************************************************

:KPT   :      NUMBER OF K-POINTS:   144
       Insulator, EF-inconsistency corrected
:GAP (global)   :  0.171958 Ry =     2.340 eV (accurate value if proper k-mesh)
         Bandranges (emin - emax) and occupancy:
:BAN00158: 158   -0.053162   -0.041511  2.00000000
:BAN00159: 159   -0.050081   -0.041202  2.00000000
:BAN00160: 160   -0.050081   -0.039694  2.00000000
:BAN00161: 161   -0.045901   -0.037654  2.00000000
:BAN00162: 162   -0.044904   -0.035627  2.00000000
:BAN00163: 163   -0.039747   -0.029731  2.00000000
:BAN00164: 164   -0.039747   -0.029731  2.00000000
:BAN00165: 165   -0.016970    0.045891  2.00000000
:BAN00166: 166   -0.008014    0.047806  2.00000000
:BAN00167: 167    0.018776    0.098237  2.00000000
:BAN00168: 168    0.018776    0.136005  2.00000000
:BAN00169: 169    0.307963    0.409118  0.00000000
:BAN00170: 170    0.311706    0.409118  0.00000000
:BAN00171: 171    0.315467    0.416558  0.00000000
:BAN00172: 172    0.333780    0.416558  0.00000000
:BAN00173: 173    0.350625    0.435278  0.00000000
        Energy to separate low and high energystates:   -0.48642


:NOE  : NUMBER OF ELECTRONS          =  336.000

:FER  : F E R M I - ENERGY(TETRAH.M.)=   0.1360047817
:GMA  : POTENTIAL AND CHARGE CUT-OFF  12.00 Ry**.5

:POS001: ATOM   -1 X,Y,Z = 0.50000 0.50000 0.50000  MULT= 4  ZZ= 82.000  Pb        

       LMMAX 28
       LM=   0 0  2 0  2 1 -2 1  2 2 -2 2  4 0  4 1 -4 1  4 2 -4 2  4 3 -4 3  4 4 -4 4  6 0  6 1
        -6 1  6 2 -6 2  6 3 -6 3  6 4 -6 4  6 5 -6 5  6 6 -6 6

:CHA001: TOTAL VALENCE CHARGE INSIDE SPHERE   1 =  11.3172    (RMT=  2.5000 )
:PCS001: PARTIAL CHARGES SPHERE =  1 S,P,D,F,PX,PY,PZ,D-Z2,D-X2Y2,D-XY,D-XZ,D-YZ 
:QTL001: 1.3309 0.2742 9.6972 0.0126 0.0905 0.0912 0.0925 1.9472 1.9355 1.9459 1.9347 1.9339
        Q-s-low E-s-low   Q-p-low E-p-low   Q-d-low E-d-low   Q-f-low E-f-low
:EPL001:  0.0185 -0.9733    0.0089 -0.9649    9.6199 -0.9140    0.0010 -0.9754
        Q-s-hi  E-s-hi    Q-p-hi  E-p-hi    Q-d-hi  E-d-hi    Q-f-hi  E-f-hi 
:EPH001:  1.3124 -0.2487    0.2653 -0.1108    0.0773 -0.0751    0.0115 -0.0760

                      QXX         QXY         QYY         QZZ       UP TO R
:VZZ001:             0.67007     0.67831     0.14886    -0.81893       2.500

:POS002: ATOM   -2 X,Y,Z = 0.48491 0.94655 0.25000  MULT= 4  ZZ= 55.000  Cs        

       LMMAX 28
       LM=   0 0  1 1 -1 1  2 0  2 2 -2 2  3 1 -3 1  3 3 -3 3  4 0  4 2 -4 2  4 4 -4 4  5 1 -5 1
         5 3 -5 3  5 5 -5 5  6 0  6 2 -6 2  6 4 -6 4  6 6 -6 6

:CHA002: TOTAL VALENCE CHARGE INSIDE SPHERE   2 =  16.2762    (RMT=  2.5000 )
:PCS002: PARTIAL CHARGES SPHERE =  2 S,P,D,F,PX,PY,PZ,D-Z2,D-X2Y2,D-XY,D-XZ,D-YZ 
:QTL002: 1.7975 4.466510.0101 0.0019 1.4881 1.4891 1.4893 2.0016 2.0024 2.0012 2.0021 2.0028
        Q-s-low E-s-low   Q-p-low E-p-low   Q-d-low E-d-low   Q-f-low E-f-low
:EPL002:  1.7872 -1.3929    0.0022 -0.9639    9.9945 -4.8633    0.0001 -1.0332
        Q-s-hi  E-s-hi    Q-p-hi  E-p-hi    Q-d-hi  E-d-hi    Q-f-hi  E-f-hi 
:EPH002:  0.0103 -0.0957    4.4643 -0.4131    0.0156 -0.0694    0.0018 -0.0622

                      QXX         QXY         QYY         QZZ       UP TO R
:VZZ002:             0.54970     1.54266    -0.20496    -0.34475       2.500

:POS003: ATOM   -3 X,Y,Z = 0.56000 0.50750 0.25000  MULT= 4  ZZ= 35.000  Br        

       LMMAX 28
       LM=   0 0  1 1 -1 1  2 0  2 2 -2 2  3 1 -3 1  3 3 -3 3  4 0  4 2 -4 2  4 4 -4 4  5 1 -5 1
         5 3 -5 3  5 5 -5 5  6 0  6 2 -6 2  6 4 -6 4  6 6 -6 6

:CHA003: TOTAL VALENCE CHARGE INSIDE SPHERE   3 =  15.9187    (RMT=  2.5000 )
:PCS003: PARTIAL CHARGES SPHERE =  3 S,P,D,F,PX,PY,PZ,D-Z2,D-X2Y2,D-XY,D-XZ,D-YZ 
:QTL003: 1.7976 4.103810.0142 0.0025 1.3860 1.3902 1.3277 2.0109 2.0004 2.0002 2.0017 2.0010
        Q-s-low E-s-low   Q-p-low E-p-low   Q-d-low E-d-low   Q-f-low E-f-low
:EPL003:  1.7654 -0.9666    0.0065 -0.9185   10.0001 -4.3654    0.0006 -0.9280
        Q-s-hi  E-s-hi    Q-p-hi  E-p-hi    Q-d-hi  E-d-hi    Q-f-hi  E-f-hi 
:EPH003:  0.0321 -0.2658    4.0974 -0.0767    0.0141 -0.1352    0.0019 -0.1844

                      QXX         QXY         QYY         QZZ       UP TO R
:VZZ003:            -5.22740    -0.43971    -6.55767    11.78508       2.500

:POS004: ATOM   -4 X,Y,Z = 0.19962 0.70227 0.46752  MULT= 8  ZZ= 35.000  Br        

       LMMAX 49

:CHA004: TOTAL VALENCE CHARGE INSIDE SPHERE   4 =  15.9188    (RMT=  2.5000 )
:PCS004: PARTIAL CHARGES SPHERE =  4 S,P,D,F,PX,PY,PZ,D-Z2,D-X2Y2,D-XY,D-XZ,D-YZ 
:QTL004: 1.7973 4.104710.0138 0.0024 1.3605 1.3574 1.3868 2.0027 2.0019 2.0073 2.0009 2.0010
        Q-s-low E-s-low   Q-p-low E-p-low   Q-d-low E-d-low   Q-f-low E-f-low
:EPL004:  1.7659 -0.9665    0.0062 -0.9174   10.0001 -4.3656    0.0006 -0.9308
        Q-s-hi  E-s-hi    Q-p-hi  E-p-hi    Q-d-hi  E-d-hi    Q-f-hi  E-f-hi 
:EPH004:  0.0314 -0.2662    4.0985 -0.0768    0.0138 -0.1377    0.0018 -0.1790

                      QXX         QXY         QYY         QZZ       UP TO R
:VZZ004:             2.18256    -8.39064     3.18490    -5.36746       2.500

:CHA  : TOTAL VALENCE CHARGE INSIDE UNIT CELL =     336.000000

:SUM  : SUM OF EIGENVALUES =        -807.489479366


        1.ATOM      Pb                   19 CORE STATES
:1S 001: 1S               -6460.792887138 Ry
:2S 001: 2S               -1154.134515613 Ry
:2PP001: 2P*              -1108.531672811 Ry
:2P 001: 2P                -947.743434894 Ry
:3S 001: 3S                -276.488363072 Ry
:3PP001: 3P*               -255.886518411 Ry
:3P 001: 3P                -220.018723220 Ry
:3DD001: 3D*               -186.079594734 Ry
:3D 001: 3D                -178.442472402 Ry
:4S 001: 4S                 -62.028628137 Ry
:4PP001: 4P*                -53.118473950 Ry
:4P 001: 4P                 -44.319738622 Ry
:4DD001: 4D*                -29.788386849 Ry
:4D 001: 4D                 -28.146463508 Ry
:5S 001: 5S                  -9.930616315 Ry
:5PP001: 5P*                 -6.879563362 Ry
:5P 001: 5P                  -5.220364397 Ry
:4FF001: 4F*                 -9.312599887 Ry
:4F 001: 4F                  -8.942534779 Ry

        2.ATOM      Cs                   12 CORE STATES
       CORE-FORCE in mRy/a.u. = |F|      Fx             Fy             Fz
:FCO002:   2.ATOM      7.302300966244     -7.296204797876     -0.298320212281      0.000000000000

:1S 002: 1S               -2625.767565999 Ry
:2S 002: 2S                -411.309162945 Ry
:2PP002: 2P*               -387.091882434 Ry
:2P 002: 2P                -361.234492511 Ry
:3S 002: 3S                 -85.011030516 Ry
:3PP002: 3P*                -74.876944430 Ry
:3P 002: 3P                 -69.924141425 Ry
:3DD002: 3D*                -52.051582434 Ry
:3D 002: 3D                 -50.998889203 Ry
:4S 002: 4S                 -15.546275587 Ry
:4PP002: 4P*                -11.908462972 Ry
:4P 002: 4P                 -10.889398749 Ry

        3.ATOM      Br                    7 CORE STATES
       CORE-FORCE in mRy/a.u. = |F|      Fx             Fy             Fz
:FCO003:   3.ATOM    106.339240175797     44.634817753888     96.518221312056      0.000000000000

:1S 003: 1S                -976.332442076 Ry
:2S 003: 2S                -126.573710539 Ry
:2PP003: 2P*               -114.034635790 Ry
:2P 003: 2P                -110.550113715 Ry
:3S 003: 3S                 -16.870148589 Ry
:3PP003: 3P*                -12.509847683 Ry
:3P 003: 3P                 -12.006893100 Ry

        4.ATOM      Br                    7 CORE STATES
       CORE-FORCE in mRy/a.u. = |F|      Fx             Fy             Fz
:FCO004:   4.ATOM     82.821382050468    -26.088488367585    -51.032858971560    -59.786448335998

:1S 004: 1S                -976.332592469 Ry
:2S 004: 2S                -126.573860777 Ry
:2PP004: 2P*               -114.034786066 Ry
:2P 004: 2P                -110.550263986 Ry
:3S 004: 3S                 -16.870297132 Ry
:3PP004: 3P*                -12.509996058 Ry
:3P 004: 3P                 -12.007041362 Ry
:CINT001 Core Integral Atom   1   67.994990
:CINT002 Core Integral Atom   2   35.999907
:CINT003 Core Integral Atom   3   17.999988
:CINT004 Core Integral Atom   4   17.999988

       DENSITY AT NUCLEUS
        JATOM        VALENCE       SEMI-CORE          CORE           TOTAL
:RTO001:   1     1927.510861        0.000000  9871844.875640  9873772.386502
:RTO002:   2      328.576094        0.000000   436456.311852   436784.887946
:RTO003:   3       75.452774        0.000000    45621.541024    45696.993798
:RTO004:   4       75.435497        0.000000    45621.541132    45696.976629
     
       CHARGES OF NEW CHARGE DENSITY
:NTO   : INTERSTITIAL CHARGE =    34.600691
:NPC   : PW Pseudocharge     =   101.777492
:NTO001: CHARGE SPHERE  1    =    79.312213
:NTO002: CHARGE SPHERE  2    =    52.276137
:NTO003: CHARGE SPHERE  3    =    33.918665
:NTO004: CHARGE SPHERE  4    =    33.918834

:NEC01: NUCLEAR AND ELECTRONIC CHARGE    968.00000   967.97942
     
       CHARGES OF OLD CHARGE DENSITY
:OTO   : INTERSTITIAL CHARGE =    36.677516
:OPC   : PW Pseudocharge     =   130.328069
:OTO001: CHARGE SPHERE  1    =    79.821202
:OTO002: CHARGE SPHERE  2    =    52.311175
:OTO003: CHARGE SPHERE  3    =    33.568483
:OTO004: CHARGE SPHERE  4    =    33.567843

:NEC02: NUCLEAR AND ELECTRONIC CHARGE    968.00000   968.02371
     
       CONVERGENCE TEST
:DTO001: DIFFERENCE IN SPHERE  1 =  0.2654287
:DTO002: DIFFERENCE IN SPHERE  2 =  0.0801253
:DTO003: DIFFERENCE IN SPHERE  3 =  0.1720723
:DTO004: DIFFERENCE IN SPHERE  4 =  0.1724751

:DIS  :  CHARGE DISTANCE       ( 0.2654287 for atom    1 spin 1)      0.1725153
 PW Mixed is         2247
 
******************************************************
* MULTISECANT MIXING VER9 RELEASE 10.4.0              *
* Standard Mode with controls                        *
* Fixed density scale                                *
* Regularization       1.000E-04                     *
* Trust Upper Limit    5.000E+00                     *
* Max Number of Memory Steps    8                    *
******************************************************
 
:PWTMP   3.9481E+03  2.5000E+03  5.2571E+03
:PLANE:  PW TOTAL     10.7768 DISTAN   3.52E+00  3.26E+01 %
:CHARG:  CLM/ATOM   1114.8049 DISTAN   2.06E-01  1.85E-02 %
 
Step History
        DMIX         DMIXT        Red     Pred      Trust     Lambda    MagRel    MagAbs     Beta
  1   3.5000E-02   3.5000E-02 -1.00E+00  1.00E+00 -1.00E+01  1.00E+00  3.50E-02  3.50E-02  1.00E+00
:INFO :  Note, Pratt in use
:TRUST:  Step 3.75E-02  Charge 7.50E-02 (e) CTO  4.43E-01 (e) PW  6.21E-01 (e)
:DIRM :  MEMORY  0/ 8 SCALE   1.000
Performing Pseudo Compensation
Final Pseudo Compensation Rescaling     1.00015E+00
:MIX  :   PRATT  REGULARIZATION:  1.00E-04 GREED: 0.02500                  
     
       CHARGES OF MIXED CHARGE DENSITY
:CTO   : INTERSTITIAL CHARGE =    36.602997
:CPC   : PW Pseudocharge     =   112.262478
:CTO001: CHARGE SPHERE  1    =    79.808477
:CTO002: CHARGE SPHERE  2    =    52.310299
:CTO003: CHARGE SPHERE  3    =    33.577238
:CTO004: CHARGE SPHERE  4    =    33.576618

:NEC03: NUCLEAR AND ELECTRONIC CHARGE    968.00000   968.00000

PW CHANGE     H    K    L      Current       Change    Residue
:PTO001:      0    0    0  2.83171783E-02 -3.430E-03 -5.790E-03
:PTO006:     -1    0   -1 -2.49132944E-03  2.693E-04  3.956E-04
:PTO007:      0    0   -2  3.61615159E-03 -1.954E-03 -3.392E-03
:PTO008:     -1   -1    0  6.89823477E-03 -4.030E-03 -6.862E-03
:PTO009:     -1   -1   -1 -1.08687303E-02  1.543E-03  2.179E-03
:PTO012:      0   -2    0  8.01747938E-03 -3.051E-03 -4.745E-03
:PTO013:     -1   -1   -2  2.59435860E-02 -1.155E-02 -1.846E-02
:PTO014:     -2    0    0  7.96374452E-03 -3.101E-03 -4.797E-03
:PTO015:      0   -2   -1  6.02114538E-03 -1.105E-03 -1.720E-03
:PTO018:     -1   -2    0 -1.08375853E-02  1.272E-03  1.618E-03
:PTO019:     -2   -1    0  1.19209618E-02 -1.430E-03 -1.829E-03
:PTO021:     -1   -2   -1  1.24360521E-02 -1.520E-03 -1.957E-03

:ENE  : ********** TOTAL ENERGY IN Ry =      -292095.52977017

       TOTAL FORCE IN mRy/a.u. = |F|     Fx             Fy             Fz     with/without FOR in case.in2
:FOR001:   1.ATOM          0.000          0.000          0.000          0.000 partial forces
:FOR002:   2.ATOM          3.571          3.571          0.003          0.000 partial forces
:FOR003:   3.ATOM         99.209        -44.186        -88.826          0.000 partial forces
:FOR004:   4.ATOM         79.981         26.596         49.211         57.166 partial forces
       TOTAL FORCE WITH RESPECT TO GLOBAL CARTESIAN COORDINATES:
:FCA001:   1.ATOM                         0.000          0.000          0.000 partial forces
:FCA002:   2.ATOM                         3.571          0.003          0.000 partial forces
:FCA003:   3.ATOM                       -44.186        -88.826          0.000 partial forces
:FCA004:   4.ATOM                        26.596         49.211         57.166 partial forces
       TOTAL FORCE WITH RESPECT TO THE GLOBAL COORDINATE SYSTEM:
:FGL001:   1.ATOM                 0.000000000     0.000000000     0.000000000 partial forces
:FGL002:   2.ATOM                 3.571196628     0.002858178     0.000000000 partial forces
:FGL003:   3.ATOM               -44.185993600   -88.826136169     0.000000000 partial forces
:FGL004:   4.ATOM                26.596008100    49.211400927    57.165797016 partial forces
 Flat Integration
 New Mode for Coulomb Integral
 Consistent 3/8+Simpson combinations
 Extension of core to zero
 LDM version in phi
 Fifth-order quadrature in outwin


            ---------
:ITE002:  2. ITERATION
            ---------

:NATO :    4 INDEPENDENT AND   20 TOTAL ATOMS IN UNITCELL
       SUBSTANCE: blebleble                                                   

       LATTICE                      = P   
:POT  : POTENTIAL OPTION EX_LDA EC_LDA VX_LDA VC_LDA
:LAT  : LATTICE CONSTANTS= 15.19415 15.66734 22.08372    1.571    1.571    1.571
:VOL  : UNIT CELL VOLUME =    5257.07306
       MODE OF CALCULATION IS       = RELA
       NON-SPINPOLARIZED CALCULATION
:IFFT  : FFT-parameters:  120  120  180 Factor: 2.00


   CONVERGENCE PARAMETER FOR PSEUDOCHARGE: NCON=  9
   MAXIMAL VALUE OF RMT(JATOM)*ABSK(NKK) : RK  =29.99804


:VKCOUL :  VK-COUL convergence: 0.232E-08
       ATOMNUMBER=  1 Pb         VCOUL-ZERO =  0.97466E-01
:EFG001:                        EFG         =     0.02920   *10**21  V / m**2
                               V20  TOT/SRF=    -0.01665     0.00181
                               V22  TOT/SRF=     0.00623    -0.00074
                               V22M TOT/SRF=     0.01668    -0.00085
                               V21  TOT/SRF=    -0.00709     0.00296
                               V21M TOT/SRF=    -0.00609    -0.00467

              0.01585    0.01668   -0.00709        0.02920    0.00000    0.00000
              0.01668    0.00338   -0.00609        0.00000   -0.00812    0.00000
             -0.00709   -0.00609   -0.01923        0.00000    0.00000   -0.02109

         MAIN DIRECTIONS OF THE EFG   1.0000 -0.7217  0.1150
                                      0.7012  1.0000  0.1705
                                     -0.2346 -0.0875  1.0000
:ANG001:  ANGLE WITH OLD X-AXIS =        36.2

:ETA001:                         ASYMM. ETA =     0.44400


       ATOMNUMBER=  2 Cs         VCOUL-ZERO = -0.59581E-01
:EFG002:                        EFG         =     0.04401   *10**21  V / m**2
                               V20  TOT/SRF=    -0.00788    -0.00038
                               V22  TOT/SRF=     0.00920    -0.00048
                               V22M TOT/SRF=     0.03838    -0.00103
                               V21  TOT/SRF=     0.00000     0.00000
                               V21M TOT/SRF=     0.00000     0.00000

              0.01375    0.03838    0.00000        0.04401    0.00000    0.00000
              0.03838   -0.00465    0.00000        0.00000   -0.03492    0.00000
              0.00000    0.00000   -0.00910        0.00000    0.00000   -0.00910

         MAIN DIRECTIONS OF THE EFG   1.0000 -0.7885  0.0000
                                      0.7885  1.0000  0.0000
                                      0.0000  0.0000  1.0000
:ANG002:  ANGLE WITH OLD X-AXIS =        38.3

:ETA002:                         ASYMM. ETA =     0.58661


       ATOMNUMBER=  3 Br         VCOUL-ZERO =  0.27116E+00
:EFG003:                        EFG         =     0.32086   *10**21  V / m**2
                               V20  TOT/SRF=     0.27787     0.06178
                               V22  TOT/SRF=     0.02057     0.00542
                               V22M TOT/SRF=    -0.02079    -0.01091
                               V21  TOT/SRF=     0.00000     0.00000
                               V21M TOT/SRF=     0.00000     0.00000

             -0.13986   -0.02079    0.00000       -0.13118    0.00000    0.00000
             -0.02079   -0.18100    0.00000        0.00000   -0.18968    0.00000
              0.00000    0.00000    0.32086        0.00000    0.00000    0.32086

         MAIN DIRECTIONS OF THE EFG   1.0000  0.4174  0.0000
                                     -0.4174  1.0000  0.0000
                                      0.0000  0.0000  1.0000
:ANG003:  ANGLE WITH OLD X-AXIS =        22.7

:ETA003:                         ASYMM. ETA =     0.18230


       ATOMNUMBER=  4 Br         VCOUL-ZERO =  0.27121E+00
:EFG004:                        EFG         =     0.30235   *10**21  V / m**2
                               V20  TOT/SRF=    -0.12434    -0.02679
                               V22  TOT/SRF=    -0.01566    -0.00433
                               V22M TOT/SRF=    -0.22881    -0.05079
                               V21  TOT/SRF=    -0.02777    -0.00363
                               V21M TOT/SRF=     0.00588     0.00770

              0.05613   -0.22881   -0.02777        0.30235    0.00000    0.00000
             -0.22881    0.08744    0.00588        0.00000   -0.16864    0.00000
             -0.02777    0.00588   -0.14357        0.00000    0.00000   -0.13370

         MAIN DIRECTIONS OF THE EFG  -0.9374  1.0000 -0.4624
                                      1.0000  0.8727 -0.5050
                                      0.0716  0.9031  1.0000
:ANG004:  ANGLE WITH OLD X-AXIS =       130.4

:ETA004:                         ASYMM. ETA =     0.11556


     HELLMANN-FEYNMAN-FORCE IN mRy/a.u. = |F|  Fx       Fy             Fz
:FHF001:   1.ATOM      0.000000000000      0.000000000000      0.000000000000      0.000000000000

     HELLMANN-FEYNMAN-FORCE IN mRy/a.u. = |F|  Fx       Fy             Fz
:FHF002:   2.ATOM     10.620238889322     10.573409178069      0.996239137653      0.000000000000

     HELLMANN-FEYNMAN-FORCE IN mRy/a.u. = |F|  Fx       Fy             Fz
:FHF003:   3.ATOM    192.001062067013    -77.641966707060   -175.602200557740      0.000000000000

     HELLMANN-FEYNMAN-FORCE IN mRy/a.u. = |F|  Fx       Fy             Fz
:FHF004:   4.ATOM    143.624771309318     42.971337047786     88.425823665278    104.701541703532

:FIT001: LUSE= 13 SIGMA OF V-XC FIT FOR ATOM  1  0.1579579E-03
:FIT001: LUSE= 13 SIGMA OF V-XC FIT FOR ATOM  1  0.1579579E-03
:FIT002: LUSE= 13 SIGMA OF V-XC FIT FOR ATOM  2  0.7350812E-06
:FIT002: LUSE= 13 SIGMA OF V-XC FIT FOR ATOM  2  0.7350812E-06
:FIT003: LUSE= 13 SIGMA OF V-XC FIT FOR ATOM  3  0.1792351E-03
:FIT003: LUSE= 13 SIGMA OF V-XC FIT FOR ATOM  3  0.1792351E-03
:FIT004: LUSE= 13 SIGMA OF V-XC FIT FOR ATOM  4  0.1854652E-03
:FIT004: LUSE= 13 SIGMA OF V-XC FIT FOR ATOM  4  0.1854652E-03
:DEN  : DENSITY INTEGRAL  =       -113961.73124335   (Ry)
       ELS_POTENTIAL_AT Z=0 and Z=0.5:  -0.54331  -0.54331
       ELS_POTENTIAL_AT Y=0 and Y=0.5:  -0.45319  -0.45319
:VZERO:v0,v0c,v0x  -1.27500  -0.54331  -0.73169 v5,v5c,v5x  -1.27500  -0.54331  -0.73169
:VZERY:v0,v0c,v0x  -1.11212  -0.45319  -0.65893 v5,v5c,v5x  -1.11212  -0.45319  -0.65893
:VZERX:v0,v0c,v0x  -1.10566  -0.45289  -0.65276 v5,v5c,v5x  -1.10566  -0.45289  -0.65276
:LMAX-WF:   10   Non-Spherical LMAX:   4

          ATOMIC SPHERE DEPENDENT PARAMETERS FOR ATOM  Pb        
:e__0001: OVERALL ENERGY PARAMETER IS    0.1000
          OVERALL BASIS SET ON ATOM IS LAPW
:E2_0001: E( 2)=    0.5000
             APW+lo
:E2_0001: E( 2)=   -0.9695   E(BOTTOM)=   -1.209   E(TOP)=   -0.730  2  3   120
             LOCAL ORBITAL
:E0_0001: E( 0)=    0.1000
             APW+lo
:E1_0001: E( 1)=    0.1000
             APW+lo

          ATOMIC SPHERE DEPENDENT PARAMETERS FOR ATOM  Cs        
:e__0002: OVERALL ENERGY PARAMETER IS    0.1000
          OVERALL BASIS SET ON ATOM IS LAPW
:E2_0002: E( 2)=    0.1000
             APW+lo
:E2_0002: E( 2)=   -4.8751   E(BOTTOM)=   -4.887   E(TOP)=   -4.863  1  2   117
             LOCAL ORBITAL
:E0_0002: E( 0)=    0.5000
             APW+lo
:E0_0002: E( 0)=   -1.3957   E(BOTTOM)=   -2.069   E(TOP)=   -0.722  4  5   163
             LOCAL ORBITAL
:E1_0002: E( 1)=    0.5000
             APW+lo
:E1_0002: E( 1)=   -0.2166   E(BOTTOM)=   -1.179   E(TOP)=    0.746  3  4   193
             LOCAL ORBITAL

          ATOMIC SPHERE DEPENDENT PARAMETERS FOR ATOM  Br        
:e__0003: OVERALL ENERGY PARAMETER IS    0.1000
          OVERALL BASIS SET ON ATOM IS LAPW
:E2_0003: E( 2)=    0.1000
             APW+lo
:E2_0003: E( 2)=   -4.3697   E(BOTTOM)=   -4.373   E(TOP)=   -4.366  0  1   122
             LOCAL ORBITAL
:E0_0003: E( 0)=    0.5000
             APW+lo
:E0_0003: E( 0)=   -0.9699   E(BOTTOM)=   -1.528   E(TOP)=   -0.411  3  4   157
             LOCAL ORBITAL
:E1_0003: E( 1)=    0.1000
             APW+lo

          ATOMIC SPHERE DEPENDENT PARAMETERS FOR ATOM  Br        
:e__0004: OVERALL ENERGY PARAMETER IS    0.1000
          OVERALL BASIS SET ON ATOM IS LAPW
:E2_0004: E( 2)=    0.1000
             APW+lo
:E2_0004: E( 2)=   -4.3698   E(BOTTOM)=   -4.373   E(TOP)=   -4.367  0  1   121
             LOCAL ORBITAL
:E0_0004: E( 0)=    0.5000
             APW+lo
:E0_0004: E( 0)=   -0.9699   E(BOTTOM)=   -1.528   E(TOP)=   -0.411  3  4   161
             LOCAL ORBITAL
:E1_0004: E( 1)=    0.1000
             APW+lo

       K=   0.04545   0.04545   0.07143            1
:RKM  : MATRIX SIZE  2239LOs: 308  RKM= 7.00  WEIGHT= 8.00  PGR:    
       EIGENVALUES ARE:
:EIG00001:      -4.8722873   -4.8722852   -4.8722695   -4.8722674   -4.8722647
:EIG00006:      -4.8722622   -4.8722586   -4.8722520   -4.8722470   -4.8722422
:EIG00011:      -4.8722389   -4.8722374   -4.8722283   -4.8722183   -4.8722090
:EIG00016:      -4.8721991   -4.8721947   -4.8721845   -4.8721782   -4.8721641
:EIG00021:      -4.3695693   -4.3695631   -4.3695611   -4.3695569   -4.3695548
:EIG00026:      -4.3695523   -4.3695494   -4.3695454   -4.3695431   -4.3695407
:EIG00031:      -4.3695369   -4.3695318   -4.3692711   -4.3692575   -4.3692547
:EIG00036:      -4.3692532   -4.3692283   -4.3692219   -4.3692205   -4.3692143
:EIG00041:      -4.3692133   -4.3692113   -4.3692048   -4.3691936   -4.3691669
:EIG00046:      -4.3691605   -4.3691492   -4.3691431   -4.3691361   -4.3691344
 
:EIG00051:      -4.3691286   -4.3691238   -4.3689904   -4.3689850   -4.3689802
:EIG00056:      -4.3689753   -4.3685957   -4.3685954   -4.3685868   -4.3685864
:EIG00061:      -4.3685796   -4.3685763   -4.3685728   -4.3685676   -4.3685566
:EIG00066:      -4.3685473   -4.3685400   -4.3685368   -4.3685360   -4.3685334
:EIG00071:      -4.3685277   -4.3685245   -4.3685160   -4.3685100   -4.3685072
:EIG00076:      -4.3685037   -4.3684535   -4.3684523   -4.3684478   -4.3684412
:EIG00081:      -1.4019704   -1.4018038   -1.4016168   -1.4015110   -0.9946207
:EIG00086:      -0.9943767   -0.9943009   -0.9935421   -0.9928293   -0.9906431
:EIG00091:      -0.9722343   -0.9720457   -0.9718016   -0.9715322   -0.9711045
:EIG00096:      -0.9706442   -0.9359697   -0.9357920   -0.9352774   -0.9287476
 
:EIG00101:      -0.9286140   -0.9285467   -0.9284707   -0.9283936   -0.9283458
:EIG00106:      -0.9279713   -0.9279398   -0.9278044   -0.9277602   -0.9276193
:EIG00111:      -0.9274687   -0.9243163   -0.9116557   -0.8995555   -0.8992913
:EIG00116:      -0.8987587   -0.4480630   -0.4406866   -0.4378858   -0.4374313
:EIG00121:      -0.4357267   -0.4351773   -0.4346258   -0.4333233   -0.4331160
:EIG00126:      -0.4329145   -0.4323032   -0.4315954   -0.4307503   -0.4052154
:EIG00131:      -0.3659874   -0.3070249   -0.1764208   -0.1756594   -0.1728536
:EIG00136:      -0.1684838   -0.1666372   -0.1577239   -0.1242137   -0.1062320
:EIG00141:      -0.1019059   -0.1002392   -0.0988860   -0.0921358   -0.0827586
:EIG00146:      -0.0767636   -0.0745378   -0.0715981   -0.0688198   -0.0663552
 
:EIG00151:      -0.0649456   -0.0628388   -0.0624328   -0.0613673   -0.0545859
:EIG00156:      -0.0505356   -0.0501984   -0.0497941   -0.0468079   -0.0452641
:EIG00161:      -0.0440137   -0.0413913   -0.0399534   -0.0394697   -0.0226401
:EIG00166:       0.0278671    0.0750623    0.1274200    0.2977947    0.3014944
:EIG00171:       0.3054151    0.3308411    0.3442056    0.3575828    0.3627304
:EIG00176:       0.4433071    0.4481191    0.4549237    0.4595484    0.4921096
:EIG00181:       0.4927148    0.4966516    0.5070476    0.5081790    0.5114961
:EIG00186:       0.5127873    0.5169261    0.5194592    0.5351754    0.5356881
:EIG00191:       0.5391306    0.5448066    0.5606473    0.5650930    0.5683309
:EIG00196:       0.5758788    0.5761560    0.5818235    0.5841886    0.5906577
 
:EIG00201:       0.5985924    0.6028990    0.6111454    0.6201979    0.6228245
:EIG00206:       0.6380344    0.6432549    0.6528050    0.6602285    0.6633867
:EIG00211:       0.6757888    0.6944380    0.7044189    0.7114386    0.7187386
:EIG00216:       0.7226774    0.7248775    0.7301536    0.7395735    0.7493617
:EIG00221:       0.7501477    0.7541241    0.7579296    0.7972867    0.8150542
:EIG00226:       0.8205545    0.8239802    0.8280564    0.8294178    0.8327978
:EIG00231:       0.8360144    0.8464693    0.8600627    0.8623344    0.8735400
:EIG00236:       0.8890040    0.9005868    0.9078818    0.9131490    0.9185462
:EIG00241:       0.9203640    0.9326074    0.9413090    0.9496935    0.9634378
:EIG00246:       0.9675984    0.9732077    0.9772468    0.9784648    0.9814401
 
:EIG00251:       0.9907501    0.9943184    1.0069286    1.0239769    1.0299177
:EIG00256:       1.0377161    1.0430711    1.0497081    1.0535545    1.0559925
:EIG00261:       1.0585395    1.0631791    1.0663605    1.0695762    1.0743068
:EIG00266:       1.0793698    1.0836375    1.0898054    1.0933881    1.0996806
:EIG00271:       1.1029341    1.1069645    1.1139706    1.1162059    1.1225198
:EIG00276:       1.1281518    1.1309624    1.1362532    1.1381911    1.1412041
:EIG00281:       1.1451675    1.1506301    1.1526890    1.1541806    1.1600340
:EIG00286:       1.1613125    1.1689739    1.1730436    1.1836290    1.1888875
:EIG00291:       1.1920919    1.1932384    1.1978447    1.2031307    1.2046975
:EIG00296:       1.2089453    1.2162851    1.2181576    1.2253580    1.2275029
 
:EIG00301:       1.2380518    1.2412874    1.2478690    1.2503850    1.2541631
:EIG00306:       1.2623315    1.2746721    1.2777313    1.2830632    1.2864908
:EIG00311:       1.2896794    1.3047361    1.3087990    1.3102743    1.3237010
:EIG00316:       1.3323497    1.3396945    1.3425572    1.3463116    1.3540970
:EIG00321:       1.3570812    1.3620069    1.3718892    1.3803509    1.3821875
:EIG00326:       1.3916988    1.3968161    1.4004590    1.4040640    1.4069412
:EIG00331:       1.4134785    1.4138131    1.4201390    1.4255459    1.4346246
:EIG00336:       1.4364831    1.4420511    1.4444781    1.4514339    1.4543384
:EIG00341:       1.4578398    1.4639056    1.4710670    1.4723254    1.4739901
:EIG00346:       1.4825752    1.4866816    1.4901314    1.4933572    1.4950736
 
:EIG00351:       1.4999311    1.5073717    1.5154085    1.5163833    1.5202766
:EIG00356:       1.5286005    1.5337397    1.5424574    1.5476483    1.5522392
:EIG00361:       1.5567611    1.5642135    1.5784954    1.5816095    1.5934165
:EIG00366:       1.5976054    1.6058156    1.6081725    1.6127522    1.6226485
:EIG00371:       1.6249983    1.6292359    1.6336430    1.6425577    1.6458080
:EIG00376:       1.6479744    1.6484031    1.6538865    1.6624689    1.6764893
:EIG00381:       1.6772033    1.6792400    1.6889191    1.6900620    1.6925444
:EIG00386:       1.6985064    1.7036437    1.7052555    1.7128826    1.7140094
:EIG00391:       1.7176967    1.7212184    1.7285902    1.7332338    1.7364725
:EIG00396:       1.7431007    1.7537014    1.7569708    1.7595665    1.7619038
 
:EIG00401:       1.7709275    1.7746443    1.7795932    1.7854199    1.7926389
:EIG00406:       1.7933415    1.7955729    1.7997231
       ********************************************************

:KPT   :      NUMBER OF K-POINTS:   144
       Insulator, EF-inconsistency corrected
:GAP (global)   :  0.170375 Ry =     2.318 eV (accurate value if proper k-mesh)
         Bandranges (emin - emax) and occupancy:
:BAN00158: 158   -0.058709   -0.047045  2.00000000
:BAN00159: 159   -0.055709   -0.046686  2.00000000
:BAN00160: 160   -0.055709   -0.045264  2.00000000
:BAN00161: 161   -0.051574   -0.043142  2.00000000
:BAN00162: 162   -0.050798   -0.041067  2.00000000
:BAN00163: 163   -0.045328   -0.035102  2.00000000
:BAN00164: 164   -0.045328   -0.035102  2.00000000
:BAN00165: 165   -0.022728    0.037887  2.00000000
:BAN00166: 166   -0.014548    0.039815  2.00000000
:BAN00167: 167    0.010615    0.089782  2.00000000
:BAN00168: 168    0.010615    0.127420  2.00000000
:BAN00169: 169    0.297795    0.400326  0.00000000
:BAN00170: 170    0.301494    0.400326  0.00000000
:BAN00171: 171    0.305415    0.407677  0.00000000
:BAN00172: 172    0.323678    0.407677  0.00000000
:BAN00173: 173    0.340395    0.425964  0.00000000
        Energy to separate low and high energystates:   -0.49806


:NOE  : NUMBER OF ELECTRONS          =  336.000

:FER  : F E R M I - ENERGY(TETRAH.M.)=   0.1274199887
:GMA  : POTENTIAL AND CHARGE CUT-OFF  12.00 Ry**.5

:POS001: ATOM   -1 X,Y,Z = 0.50000 0.50000 0.50000  MULT= 4  ZZ= 82.000  Pb        

       LMMAX 28
       LM=   0 0  2 0  2 1 -2 1  2 2 -2 2  4 0  4 1 -4 1  4 2 -4 2  4 3 -4 3  4 4 -4 4  6 0  6 1
        -6 1  6 2 -6 2  6 3 -6 3  6 4 -6 4  6 5 -6 5  6 6 -6 6

:CHA001: TOTAL VALENCE CHARGE INSIDE SPHERE   1 =  11.3269    (RMT=  2.5000 )
:PCS001: PARTIAL CHARGES SPHERE =  1 S,P,D,F,PX,PY,PZ,D-Z2,D-X2Y2,D-XY,D-XZ,D-YZ 
:QTL001: 1.3328 0.2797 9.6993 0.0127 0.0924 0.0931 0.0943 1.9477 1.9359 1.9463 1.9351 1.9343
        Q-s-low E-s-low   Q-p-low E-p-low   Q-d-low E-d-low   Q-f-low E-f-low
:EPL001:  0.0191 -0.9785    0.0090 -0.9699    9.6226 -0.9303    0.0010 -0.9800
        Q-s-hi  E-s-hi    Q-p-hi  E-p-hi    Q-d-hi  E-d-hi    Q-f-hi  E-f-hi 
:EPH001:  1.3138 -0.2619    0.2707 -0.1181    0.0767 -0.0815    0.0116 -0.0822

                      QXX         QXY         QYY         QZZ       UP TO R
:VZZ001:             0.66985     0.68989     0.13417    -0.80402       2.500

:POS002: ATOM   -2 X,Y,Z = 0.48491 0.94655 0.25000  MULT= 4  ZZ= 55.000  Cs        

       LMMAX 28
       LM=   0 0  1 1 -1 1  2 0  2 2 -2 2  3 1 -3 1  3 3 -3 3  4 0  4 2 -4 2  4 4 -4 4  5 1 -5 1
         5 3 -5 3  5 5 -5 5  6 0  6 2 -6 2  6 4 -6 4  6 6 -6 6

:CHA002: TOTAL VALENCE CHARGE INSIDE SPHERE   2 =  16.2778    (RMT=  2.5000 )
:PCS002: PARTIAL CHARGES SPHERE =  2 S,P,D,F,PX,PY,PZ,D-Z2,D-X2Y2,D-XY,D-XZ,D-YZ 
:QTL002: 1.7976 4.467710.0103 0.0019 1.4885 1.4895 1.4897 2.0016 2.0025 2.0013 2.0021 2.0029
        Q-s-low E-s-low   Q-p-low E-p-low   Q-d-low E-d-low   Q-f-low E-f-low
:EPL002:  1.7873 -1.4013    0.0022 -0.9692    9.9946 -4.8722    0.0001 -1.0433
        Q-s-hi  E-s-hi    Q-p-hi  E-p-hi    Q-d-hi  E-d-hi    Q-f-hi  E-f-hi 
:EPH002:  0.0104 -0.1015    4.4655 -0.4213    0.0158 -0.0751    0.0018 -0.0678

                      QXX         QXY         QYY         QZZ       UP TO R
:VZZ002:             0.56158     1.56786    -0.20566    -0.35592       2.500

:POS003: ATOM   -3 X,Y,Z = 0.56000 0.50750 0.25000  MULT= 4  ZZ= 35.000  Br        

       LMMAX 28
       LM=   0 0  1 1 -1 1  2 0  2 2 -2 2  3 1 -3 1  3 3 -3 3  4 0  4 2 -4 2  4 4 -4 4  5 1 -5 1
         5 3 -5 3  5 5 -5 5  6 0  6 2 -6 2  6 4 -6 4  6 6 -6 6

:CHA003: TOTAL VALENCE CHARGE INSIDE SPHERE   3 =  15.9070    (RMT=  2.5000 )
:PCS003: PARTIAL CHARGES SPHERE =  3 S,P,D,F,PX,PY,PZ,D-Z2,D-X2Y2,D-XY,D-XZ,D-YZ 
:QTL003: 1.7969 4.092910.0142 0.0025 1.3830 1.3872 1.3226 2.0108 2.0004 2.0002 2.0017 2.0010
        Q-s-low E-s-low   Q-p-low E-p-low   Q-d-low E-d-low   Q-f-low E-f-low
:EPL003:  1.7642 -0.9715    0.0063 -0.9340   10.0001 -4.3684    0.0006 -0.9439
        Q-s-hi  E-s-hi    Q-p-hi  E-p-hi    Q-d-hi  E-d-hi    Q-f-hi  E-f-hi 
:EPH003:  0.0326 -0.2773    4.0866 -0.0827    0.0141 -0.1449    0.0019 -0.1947

                      QXX         QXY         QYY         QZZ       UP TO R
:VZZ003:            -5.42405    -0.42666    -6.77545    12.19950       2.500

:POS004: ATOM   -4 X,Y,Z = 0.19962 0.70227 0.46752  MULT= 8  ZZ= 35.000  Br        

       LMMAX 49

:CHA004: TOTAL VALENCE CHARGE INSIDE SPHERE   4 =  15.9071    (RMT=  2.5000 )
:PCS004: PARTIAL CHARGES SPHERE =  4 S,P,D,F,PX,PY,PZ,D-Z2,D-X2Y2,D-XY,D-XZ,D-YZ 
:QTL004: 1.7966 4.093710.0138 0.0024 1.3565 1.3533 1.3838 2.0027 2.0019 2.0073 2.0009 2.0010
        Q-s-low E-s-low   Q-p-low E-p-low   Q-d-low E-d-low   Q-f-low E-f-low
:EPL004:  1.7647 -0.9714    0.0060 -0.9331   10.0001 -4.3684    0.0006 -0.9466
        Q-s-hi  E-s-hi    Q-p-hi  E-p-hi    Q-d-hi  E-d-hi    Q-f-hi  E-f-hi 
:EPH004:  0.0319 -0.2778    4.0876 -0.0827    0.0137 -0.1474    0.0018 -0.1893

                      QXX         QXY         QYY         QZZ       UP TO R
:VZZ004:             2.27491    -8.68821     3.29909    -5.57401       2.500

:CHA  : TOTAL VALENCE CHARGE INSIDE UNIT CELL =     336.000000

:SUM  : SUM OF EIGENVALUES =        -809.767319586


        1.ATOM      Pb                   19 CORE STATES
:1S 001: 1S               -6460.813249709 Ry
:2S 001: 2S               -1154.154382007 Ry
:2PP001: 2P*              -1108.551645897 Ry
:2P 001: 2P                -947.763329336 Ry
:3S 001: 3S                -276.507615860 Ry
:3PP001: 3P*               -255.905817427 Ry
:3P 001: 3P                -220.037953199 Ry
:3DD001: 3D*               -186.098918568 Ry
:3D 001: 3D                -178.461772708 Ry
:4S 001: 4S                 -62.047229887 Ry
:4PP001: 4P*                -53.137076411 Ry
:4P 001: 4P                 -44.338253168 Ry
:4DD001: 4D*                -29.806891513 Ry
:4D 001: 4D                 -28.164939870 Ry
:5S 001: 5S                  -9.948112993 Ry
:5PP001: 5P*                 -6.896926932 Ry
:5P 001: 5P                  -5.237510312 Ry
:4FF001: 4F*                 -9.331027761 Ry
:4F 001: 4F                  -8.960946957 Ry

        2.ATOM      Cs                   12 CORE STATES
       CORE-FORCE in mRy/a.u. = |F|      Fx             Fy             Fz
:FCO002:   2.ATOM      7.172176103128     -7.130570104301     -0.771414312757      0.000000000000

:1S 002: 1S               -2625.777913131 Ry
:2S 002: 2S                -411.319104800 Ry
:2PP002: 2P*               -387.101902620 Ry
:2P 002: 2P                -361.244486606 Ry
:3S 002: 3S                 -85.020437818 Ry
:3PP002: 3P*                -74.886375785 Ry
:3P 002: 3P                 -69.933550274 Ry
:3DD002: 3D*                -52.061048357 Ry
:3D 002: 3D                 -51.008346847 Ry
:4S 002: 4S                 -15.555232282 Ry
:4PP002: 4P*                -11.917403499 Ry
:4P 002: 4P                 -10.898318702 Ry

        3.ATOM      Br                    7 CORE STATES
       CORE-FORCE in mRy/a.u. = |F|      Fx             Fy             Fz
:FCO003:   3.ATOM     99.374188971512     38.698043636955     91.529726605175      0.000000000000

:1S 003: 1S                -976.334867893 Ry
:2S 003: 2S                -126.576337004 Ry
:2PP003: 2P*               -114.037234232 Ry
:2P 003: 2P                -110.552716185 Ry
:3S 003: 3S                 -16.873030585 Ry
:3PP003: 3P*                -12.512736033 Ry
:3P 003: 3P                 -12.009791494 Ry

        4.ATOM      Br                    7 CORE STATES
       CORE-FORCE in mRy/a.u. = |F|      Fx             Fy             Fz
:FCO004:   4.ATOM     72.700887802001    -20.920243270453    -44.767394321139    -53.325818459728

:1S 004: 1S                -976.334921392 Ry
:2S 004: 2S                -126.576391189 Ry
:2PP004: 2P*               -114.037288313 Ry
:2P 004: 2P                -110.552770279 Ry
:3S 004: 3S                 -16.873084111 Ry
:3PP004: 3P*                -12.512789400 Ry
:3P 004: 3P                 -12.009844776 Ry
:CINT001 Core Integral Atom   1   67.995003
:CINT002 Core Integral Atom   2   35.999907
:CINT003 Core Integral Atom   3   17.999988
:CINT004 Core Integral Atom   4   17.999988

       DENSITY AT NUCLEUS
        JATOM        VALENCE       SEMI-CORE          CORE           TOTAL
:RTO001:   1     1949.510365        0.000000  9871848.105811  9873797.616176
:RTO002:   2      328.650834        0.000000   436456.437462   436785.088296
:RTO003:   3       75.369656        0.000000    45621.526548    45696.896205
:RTO004:   4       75.351985        0.000000    45621.526608    45696.878593
     
       CHARGES OF NEW CHARGE DENSITY
:NTO   : INTERSTITIAL CHARGE =    34.696854
:NPC   : PW Pseudocharge     =   101.831837
:NTO001: CHARGE SPHERE  1    =    79.321862
:NTO002: CHARGE SPHERE  2    =    52.277690
:NTO003: CHARGE SPHERE  3    =    33.906990
:NTO004: CHARGE SPHERE  4    =    33.907056

:NEC01: NUCLEAR AND ELECTRONIC CHARGE    968.00000   967.97947
     
       CHARGES OF OLD CHARGE DENSITY
:OTO   : INTERSTITIAL CHARGE =    36.603032
:OPC   : PW Pseudocharge     =   112.262443
:OTO001: CHARGE SPHERE  1    =    79.808477
:OTO002: CHARGE SPHERE  2    =    52.310299
:OTO003: CHARGE SPHERE  3    =    33.577238
:OTO004: CHARGE SPHERE  4    =    33.576618

:NEC02: NUCLEAR AND ELECTRONIC CHARGE    968.00000   968.00003
     
       CONVERGENCE TEST
:DTO001: DIFFERENCE IN SPHERE  1 =  0.2522773
:DTO002: DIFFERENCE IN SPHERE  2 =  0.0762212
:DTO003: DIFFERENCE IN SPHERE  3 =  0.1643559
:DTO004: DIFFERENCE IN SPHERE  4 =  0.1646942

:DIS  :  CHARGE DISTANCE       ( 0.2522773 for atom    1 spin 1)      0.1644486
 PW Mixed is         2247
 
******************************************************
* MULTISECANT MIXING VER9 RELEASE 10.4.0              *
* Slow Mode, cautious                                *
* Fixed density scale                                *
* Regularization       1.000E-04                     *
* Step Trust Radius    0.75000                       *
* Trust Upper Limit    2.000E+00                     *
* Max Number of Memory Steps   12                    *
******************************************************
 
:PWTMP   3.9481E+03  2.5000E+03  5.2571E+03
:PLANE:  PW TOTAL      8.8168 DISTAN   1.04E+00  1.18E+01 %
:CHARG:  CLM/ATOM   1114.8038 DISTAN   1.97E-01  1.76E-02 %
 
Step History
        DMIX         DMIXT        Red     Pred      Trust     Lambda    MagRel    MagAbs     Beta
  1   3.5000E-02   3.5000E-02 -1.00E+00  1.00E+00 -1.00E+01  1.00E+00  3.50E-02  3.50E-02  1.00E+00
  2   2.5000E-02   2.5000E-02 -1.00E+00  1.00E+00 -1.00E+01  1.00E+00  2.50E-02  9.03E-02  1.00E+00
:JACOBIANS    4.987E-01   6.799E-05
  
:TRUST:  Step 4.32E-02  Charge 7.50E-02 (e) CTO  4.43E-01 (e) PW  6.21E-01 (e)
:DIRM :  MEMORY  1/12 SCALE   1.000
:MIX  :   PRATT  REGULARIZATION:  1.00E-04 GREED: 0.04321  Expand 1.73  0.0432                
     
       CHARGES OF MIXED CHARGE DENSITY
:CTO   : INTERSTITIAL CHARGE =    36.589376
:CPC   : PW Pseudocharge     =   107.442197
:CTO001: CHARGE SPHERE  1    =    79.805066
:CTO002: CHARGE SPHERE  2    =    52.310064
:CTO003: CHARGE SPHERE  3    =    33.579584
:CTO004: CHARGE SPHERE  4    =    33.578970

:NEC03: NUCLEAR AND ELECTRONIC CHARGE    968.00000   968.00000

PW CHANGE     H    K    L      Current       Change    Residue
:PTO001:      0    0    0  2.73976739E-02 -9.195E-04 -2.331E-03
:PTO006:     -1    0   -1 -2.41913862E-03  7.219E-05  1.265E-04
:PTO007:      0    0   -2  3.09246089E-03 -5.237E-04 -1.416E-03
:PTO008:     -1   -1    0  5.81781836E-03 -1.080E-03 -2.785E-03
:PTO009:     -1   -1   -1 -1.04550888E-02  4.136E-04  6.311E-04
:PTO012:      0   -2    0  7.19960191E-03 -8.179E-04 -1.677E-03
:PTO013:     -1   -1   -2  2.28481553E-02 -3.095E-03 -6.832E-03
:PTO014:     -2    0    0  7.13257455E-03 -8.312E-04 -1.678E-03
:PTO015:      0   -2   -1  5.72480820E-03 -2.963E-04 -6.073E-04
:PTO018:     -1   -2    0 -1.04966351E-02  3.409E-04  3.532E-04
:PTO019:     -2   -1    0  1.15375488E-02 -3.834E-04 -4.068E-04
:PTO021:     -1   -2   -1  1.20285318E-02 -4.075E-04 -4.455E-04

:ENE  : ********** TOTAL ENERGY IN Ry =      -292095.51157613

       TOTAL FORCE IN mRy/a.u. = |F|     Fx             Fy             Fz     with/without FOR in case.in2
:FOR001:   1.ATOM          0.000          0.000          0.000          0.000 partial forces
:FOR002:   2.ATOM          3.450          3.443          0.225          0.000 partial forces
:FOR003:   3.ATOM         92.654        -38.944        -84.072          0.000 partial forces
:FOR004:   4.ATOM         70.935         22.051         43.658         51.376 partial forces
       TOTAL FORCE WITH RESPECT TO GLOBAL CARTESIAN COORDINATES:
:FCA001:   1.ATOM                         0.000          0.000          0.000 partial forces
:FCA002:   2.ATOM                         3.443          0.225          0.000 partial forces
:FCA003:   3.ATOM                       -38.944        -84.072          0.000 partial forces
:FCA004:   4.ATOM                        22.051         43.658         51.376 partial forces
       TOTAL FORCE WITH RESPECT TO THE GLOBAL COORDINATE SYSTEM:
:FGL001:   1.ATOM                 0.000000000     0.000000000     0.000000000 partial forces
:FGL002:   2.ATOM                 3.442839074     0.224824825     0.000000000 partial forces
:FGL003:   3.ATOM               -38.943923070   -84.072473953     0.000000000 partial forces
:FGL004:   4.ATOM                22.051093777    43.658429344    51.375723244 partial forces
 Flat Integration
 New Mode for Coulomb Integral
 Consistent 3/8+Simpson combinations
 Extension of core to zero
 LDM version in phi
 Fifth-order quadrature in outwin


            ---------
:ITE003:  3. ITERATION
            ---------

:NATO :    4 INDEPENDENT AND   20 TOTAL ATOMS IN UNITCELL
       SUBSTANCE: blebleble                                                   

       LATTICE                      = P   
:POT  : POTENTIAL OPTION EX_LDA EC_LDA VX_LDA VC_LDA
:LAT  : LATTICE CONSTANTS= 15.19415 15.66734 22.08372    1.571    1.571    1.571
:VOL  : UNIT CELL VOLUME =    5257.07306
       MODE OF CALCULATION IS       = RELA
       NON-SPINPOLARIZED CALCULATION
:IFFT  : FFT-parameters:  120  120  180 Factor: 2.00


   CONVERGENCE PARAMETER FOR PSEUDOCHARGE: NCON=  9
   MAXIMAL VALUE OF RMT(JATOM)*ABSK(NKK) : RK  =29.99804


:VKCOUL :  VK-COUL convergence: 0.222E-08
       ATOMNUMBER=  1 Pb         VCOUL-ZERO =  0.93922E-01
:EFG001:                        EFG         =     0.03721   *10**21  V / m**2
                               V20  TOT/SRF=    -0.02140     0.00180
                               V22  TOT/SRF=     0.00798    -0.00073
                               V22M TOT/SRF=     0.02123    -0.00082
                               V21  TOT/SRF=    -0.00958     0.00293
                               V21M TOT/SRF=    -0.00658    -0.00467

              0.02033    0.02123   -0.00958        0.03721    0.00000    0.00000
              0.02123    0.00437   -0.00658        0.00000   -0.01032    0.00000
             -0.00958   -0.00658   -0.02471        0.00000    0.00000   -0.02689

         MAIN DIRECTIONS OF THE EFG   1.0000 -0.6914  0.1559
                                      0.6921  1.0000  0.1045
                                     -0.2283  0.0033  1.0000
:ANG001:  ANGLE WITH OLD X-AXIS =        35.3

:ETA001:                         ASYMM. ETA =     0.44519


       ATOMNUMBER=  2 Cs         VCOUL-ZERO = -0.61714E-01
:EFG002:                        EFG         =     0.05590   *10**21  V / m**2
                               V20  TOT/SRF=    -0.00990    -0.00041
                               V22  TOT/SRF=     0.01174    -0.00046
                               V22M TOT/SRF=     0.04878    -0.00094
                               V21  TOT/SRF=     0.00000     0.00000
                               V21M TOT/SRF=     0.00000     0.00000

              0.01746    0.04878    0.00000        0.05590    0.00000    0.00000
              0.04878   -0.00603    0.00000        0.00000   -0.04446    0.00000
              0.00000    0.00000   -0.01143        0.00000    0.00000   -0.01143

         MAIN DIRECTIONS OF THE EFG   1.0000 -0.7878  0.0000
                                      0.7878  1.0000  0.0000
                                      0.0000  0.0000  1.0000
:ANG002:  ANGLE WITH OLD X-AXIS =        38.2

:ETA002:                         ASYMM. ETA =     0.59085


       ATOMNUMBER=  3 Br         VCOUL-ZERO =  0.26947E+00
:EFG003:                        EFG         =     0.40124   *10**21  V / m**2
                               V20  TOT/SRF=     0.34748     0.06267
                               V22  TOT/SRF=     0.02506     0.00544
                               V22M TOT/SRF=    -0.02373    -0.01088
                               V21  TOT/SRF=     0.00000     0.00000
                               V21M TOT/SRF=     0.00000     0.00000

             -0.17556   -0.02373    0.00000       -0.16610    0.00000    0.00000
             -0.02373   -0.22568    0.00000        0.00000   -0.23513    0.00000
              0.00000    0.00000    0.40124        0.00000    0.00000    0.40124

         MAIN DIRECTIONS OF THE EFG   1.0000  0.3983  0.0000
                                     -0.3983  1.0000  0.0000
                                      0.0000  0.0000  1.0000
:ANG003:  ANGLE WITH OLD X-AXIS =        21.7

:ETA003:                         ASYMM. ETA =     0.17204


       ATOMNUMBER=  4 Br         VCOUL-ZERO =  0.26955E+00
:EFG004:                        EFG         =     0.37815   *10**21  V / m**2
                               V20  TOT/SRF=    -0.15608    -0.02722
                               V22  TOT/SRF=    -0.01905    -0.00435
                               V22M TOT/SRF=    -0.28604    -0.05153
                               V21  TOT/SRF=    -0.03412    -0.00360
                               V21M TOT/SRF=     0.00589     0.00771

              0.07106   -0.28604   -0.03412        0.37815    0.00000    0.00000
             -0.28604    0.10916    0.00589        0.00000   -0.21124    0.00000
             -0.03412    0.00589   -0.18022        0.00000    0.00000   -0.16691

         MAIN DIRECTIONS OF THE EFG  -0.9390  1.0000 -0.4797
                                      1.0000  0.8756 -0.5184
                                      0.0679  0.9336  1.0000
:ANG004:  ANGLE WITH OLD X-AXIS =       130.3

:ETA004:                         ASYMM. ETA =     0.11723


     HELLMANN-FEYNMAN-FORCE IN mRy/a.u. = |F|  Fx       Fy             Fz
:FHF001:   1.ATOM      0.000000000000      0.000000000000      0.000000000000      0.000000000000

     HELLMANN-FEYNMAN-FORCE IN mRy/a.u. = |F|  Fx       Fy             Fz
:FHF002:   2.ATOM     10.513083661971     10.415186094412      1.431372314377      0.000000000000

     HELLMANN-FEYNMAN-FORCE IN mRy/a.u. = |F|  Fx       Fy             Fz
:FHF003:   3.ATOM    188.610063536273    -74.710737907449   -173.182163367021      0.000000000000

     HELLMANN-FEYNMAN-FORCE IN mRy/a.u. = |F|  Fx       Fy             Fz
:FHF004:   4.ATOM    138.364237910681     40.354154493459     85.092678534534    101.367847996986

:FIT001: LUSE= 13 SIGMA OF V-XC FIT FOR ATOM  1  0.1594509E-03
:FIT001: LUSE= 13 SIGMA OF V-XC FIT FOR ATOM  1  0.1594509E-03
:FIT002: LUSE= 13 SIGMA OF V-XC FIT FOR ATOM  2  0.7433237E-06
:FIT002: LUSE= 13 SIGMA OF V-XC FIT FOR ATOM  2  0.7433237E-06
:FIT003: LUSE= 13 SIGMA OF V-XC FIT FOR ATOM  3  0.1792851E-03
:FIT003: LUSE= 13 SIGMA OF V-XC FIT FOR ATOM  3  0.1792851E-03
:FIT004: LUSE= 13 SIGMA OF V-XC FIT FOR ATOM  4  0.1855259E-03
:FIT004: LUSE= 13 SIGMA OF V-XC FIT FOR ATOM  4  0.1855259E-03
:DEN  : DENSITY INTEGRAL  =       -113959.25921934   (Ry)
       ELS_POTENTIAL_AT Z=0 and Z=0.5:  -0.53483  -0.53483
       ELS_POTENTIAL_AT Y=0 and Y=0.5:  -0.44654  -0.44654
:VZERO:v0,v0c,v0x  -1.25712  -0.53483  -0.72230 v5,v5c,v5x  -1.25712  -0.53483  -0.72230
:VZERY:v0,v0c,v0x  -1.09797  -0.44654  -0.65142 v5,v5c,v5x  -1.09797  -0.44654  -0.65142
:VZERX:v0,v0c,v0x  -1.09116  -0.44566  -0.64550 v5,v5c,v5x  -1.09116  -0.44566  -0.64550
:LMAX-WF:   10   Non-Spherical LMAX:   4

          ATOMIC SPHERE DEPENDENT PARAMETERS FOR ATOM  Pb        
:e__0001: OVERALL ENERGY PARAMETER IS   -0.0151
          OVERALL BASIS SET ON ATOM IS LAPW
:E2_0001: E( 2)=    0.3849
             APW+lo
:E2_0001: E( 2)=   -0.9739   E(BOTTOM)=   -1.213   E(TOP)=   -0.734  2  3   125
             LOCAL ORBITAL
:E0_0001: E( 0)=   -0.0151
             APW+lo
:E1_0001: E( 1)=   -0.0151
             APW+lo

          ATOMIC SPHERE DEPENDENT PARAMETERS FOR ATOM  Cs        
:e__0002: OVERALL ENERGY PARAMETER IS   -0.0151
          OVERALL BASIS SET ON ATOM IS LAPW
:E2_0002: E( 2)=   -0.0151
             APW+lo
:E2_0002: E( 2)=   -4.8774   E(BOTTOM)=   -4.889   E(TOP)=   -4.866  1  2   121
             LOCAL ORBITAL
:E0_0002: E( 0)=    0.3849
             APW+lo
:E0_0002: E( 0)=   -1.3979   E(BOTTOM)=   -2.071   E(TOP)=   -0.724  4  5   170
             LOCAL ORBITAL
:E1_0002: E( 1)=    0.3849
             APW+lo
:E1_0002: E( 1)=   -0.2188   E(BOTTOM)=   -1.181   E(TOP)=    0.744  3  4   201
             LOCAL ORBITAL

          ATOMIC SPHERE DEPENDENT PARAMETERS FOR ATOM  Br        
:e__0003: OVERALL ENERGY PARAMETER IS   -0.0151
          OVERALL BASIS SET ON ATOM IS LAPW
:E2_0003: E( 2)=   -0.0151
             APW+lo
:E2_0003: E( 2)=   -4.3704   E(BOTTOM)=   -4.374   E(TOP)=   -4.367  0  1   120
             LOCAL ORBITAL
:E0_0003: E( 0)=    0.3849
             APW+lo
:E0_0003: E( 0)=   -0.9711   E(BOTTOM)=   -1.530   E(TOP)=   -0.413  3  4   156
             LOCAL ORBITAL
:E1_0003: E( 1)=   -0.0151
             APW+lo

          ATOMIC SPHERE DEPENDENT PARAMETERS FOR ATOM  Br        
:e__0004: OVERALL ENERGY PARAMETER IS   -0.0151
          OVERALL BASIS SET ON ATOM IS LAPW
:E2_0004: E( 2)=   -0.0151
             APW+lo
:E2_0004: E( 2)=   -4.3705   E(BOTTOM)=   -4.374   E(TOP)=   -4.367  0  1   116
             LOCAL ORBITAL
:E0_0004: E( 0)=    0.3849
             APW+lo
:E0_0004: E( 0)=   -0.9711   E(BOTTOM)=   -1.530   E(TOP)=   -0.413  3  4   152
             LOCAL ORBITAL
:E1_0004: E( 1)=   -0.0151
             APW+lo

       K=   0.04545   0.04545   0.07143            1
:RKM  : MATRIX SIZE  2239LOs: 308  RKM= 7.00  WEIGHT= 8.00  PGR:    
       EIGENVALUES ARE:
:EIG00001:      -4.8746391   -4.8746352   -4.8746208   -4.8746175   -4.8746166
:EIG00006:      -4.8746116   -4.8746084   -4.8746007   -4.8745965   -4.8745932
:EIG00011:      -4.8745898   -4.8745891   -4.8745810   -4.8745683   -4.8745616
:EIG00016:      -4.8745519   -4.8745470   -4.8745338   -4.8745291   -4.8745137
:EIG00021:      -4.3703273   -4.3703222   -4.3703202   -4.3703140   -4.3702959
:EIG00026:      -4.3702900   -4.3702859   -4.3702828   -4.3702797   -4.3702782
:EIG00031:      -4.3702738   -4.3702681   -4.3700188   -4.3700060   -4.3700033
:EIG00036:      -4.3700018   -4.3699520   -4.3699462   -4.3699443   -4.3699377
:EIG00041:      -4.3699368   -4.3699349   -4.3699285   -4.3699172   -4.3698911
:EIG00046:      -4.3698845   -4.3698730   -4.3698666   -4.3698603   -4.3698584
 
:EIG00051:      -4.3698522   -4.3698477   -4.3697395   -4.3697337   -4.3697294
:EIG00056:      -4.3697244   -4.3692856   -4.3692853   -4.3692767   -4.3692763
:EIG00061:      -4.3692693   -4.3692663   -4.3692627   -4.3692575   -4.3692473
:EIG00066:      -4.3692369   -4.3692323   -4.3692311   -4.3692273   -4.3692257
:EIG00071:      -4.3692237   -4.3692192   -4.3692169   -4.3692161   -4.3692143
:EIG00076:      -4.3692122   -4.3691657   -4.3691647   -4.3691603   -4.3691538
:EIG00081:      -1.4041858   -1.4040200   -1.4038334   -1.4037278   -0.9969206
:EIG00086:      -0.9966711   -0.9965858   -0.9956463   -0.9946096   -0.9919984
:EIG00091:      -0.9735299   -0.9733357   -0.9731340   -0.9728184   -0.9723627
:EIG00096:      -0.9718968   -0.9402809   -0.9400826   -0.9395352   -0.9331090
 
:EIG00101:      -0.9329757   -0.9329081   -0.9328332   -0.9327543   -0.9327062
:EIG00106:      -0.9323318   -0.9323009   -0.9321693   -0.9321252   -0.9319827
:EIG00111:      -0.9318317   -0.9281780   -0.9151879   -0.9028303   -0.9025765
:EIG00116:      -0.9020446   -0.4511434   -0.4428542   -0.4400369   -0.4395794
:EIG00121:      -0.4378720   -0.4373308   -0.4368009   -0.4354821   -0.4352706
:EIG00126:      -0.4350785   -0.4344845   -0.4338029   -0.4329053   -0.4082497
:EIG00131:      -0.3691156   -0.3103390   -0.1783094   -0.1775650   -0.1747651
:EIG00136:      -0.1703763   -0.1685266   -0.1596558   -0.1257127   -0.1077451
:EIG00141:      -0.1034029   -0.1017402   -0.1003908   -0.0936311   -0.0842481
:EIG00146:      -0.0781822   -0.0759695   -0.0730117   -0.0702640   -0.0677864
 
:EIG00151:      -0.0663669   -0.0642334   -0.0638572   -0.0628168   -0.0560523
:EIG00156:      -0.0521249   -0.0518221   -0.0513880   -0.0482323   -0.0466821
:EIG00161:      -0.0454268   -0.0427455   -0.0413366   -0.0408130   -0.0240847
:EIG00166:       0.0258506    0.0729226    0.1251666    0.2951107    0.2987980
:EIG00171:       0.3027625    0.3281525    0.3415187    0.3556313    0.3600718
:EIG00176:       0.4414214    0.4462490    0.4529525    0.4576288    0.4899997
:EIG00181:       0.4905762    0.4946422    0.5049169    0.5061497    0.5093851
:EIG00186:       0.5107598    0.5149300    0.5174261    0.5329822    0.5337916
:EIG00191:       0.5370460    0.5429571    0.5585839    0.5628000    0.5661873
:EIG00196:       0.5736903    0.5740653    0.5797127    0.5820904    0.5887595
 
:EIG00201:       0.5965740    0.6008101    0.6091477    0.6181901    0.6208338
:EIG00206:       0.6360991    0.6413238    0.6509505    0.6581927    0.6615132
:EIG00211:       0.6738614    0.6925113    0.7024920    0.7096679    0.7170399
:EIG00216:       0.7208690    0.7229569    0.7283569    0.7377353    0.7475723
:EIG00221:       0.7483550    0.7523866    0.7560766    0.7953838    0.8133105
:EIG00226:       0.8187909    0.8221409    0.8263352    0.8275605    0.8310158
:EIG00231:       0.8341552    0.8447265    0.8582465    0.8604851    0.8718971
:EIG00236:       0.8872471    0.8988084    0.9062153    0.9115973    0.9169600
:EIG00241:       0.9187252    0.9309576    0.9398745    0.9479306    0.9617505
:EIG00246:       0.9658152    0.9714987    0.9756791    0.9772186    0.9802188
 
:EIG00251:       0.9891170    0.9926315    1.0054815    1.0224151    1.0285267
:EIG00256:       1.0363418    1.0422658    1.0488338    1.0526137    1.0550303
:EIG00261:       1.0577041    1.0628000    1.0659828    1.0688564    1.0733792
:EIG00266:       1.0787931    1.0828989    1.0892244    1.0923997    1.0988853
:EIG00271:       1.1020268    1.1061723    1.1135350    1.1158505    1.1214587
:EIG00276:       1.1273437    1.1301020    1.1354721    1.1377307    1.1403725
:EIG00281:       1.1444623    1.1500649    1.1516428    1.1540467    1.1591593
:EIG00286:       1.1607074    1.1685180    1.1721426    1.1840926    1.1889209
:EIG00291:       1.1918710    1.1936550    1.1978666    1.2032883    1.2040899
:EIG00296:       1.2090489    1.2166861    1.2183742    1.2262016    1.2271631
 
:EIG00301:       1.2378614    1.2411097    1.2479574    1.2505314    1.2539615
:EIG00306:       1.2625945    1.2741117    1.2774609    1.2829871    1.2881922
:EIG00311:       1.2905558    1.3078441    1.3098410    1.3115879    1.3232523
:EIG00316:       1.3346983    1.3406378    1.3435087    1.3466828    1.3542215
:EIG00321:       1.3585983    1.3672819    1.3736705    1.3823606    1.3850277
:EIG00326:       1.3954306    1.3976852    1.4054510    1.4063151    1.4102342
:EIG00331:       1.4149675    1.4165131    1.4209754    1.4287990    1.4357452
:EIG00336:       1.4394086    1.4440763    1.4465489    1.4547770    1.4585302
:EIG00341:       1.4601912    1.4677974    1.4739502    1.4758816    1.4771165
:EIG00346:       1.4863602    1.4899101    1.4933236    1.4963793    1.4975254
 
:EIG00351:       1.5031912    1.5120298    1.5189715    1.5207252    1.5216725
:EIG00356:       1.5285045    1.5369208    1.5434308    1.5492166    1.5541694
:EIG00361:       1.5566407    1.5658843    1.5800468    1.5836886    1.5963559
:EIG00366:       1.5996076    1.6079992    1.6103059    1.6152815    1.6241671
:EIG00371:       1.6266966    1.6323735    1.6350785    1.6437399    1.6478835
:EIG00376:       1.6501267    1.6512192    1.6543936    1.6630334    1.6775314
:EIG00381:       1.6783968    1.6800137
       ********************************************************

:KPT   :      NUMBER OF K-POINTS:   144
       Insulator, EF-inconsistency corrected
:GAP (global)   :  0.169944 Ry =     2.312 eV (accurate value if proper k-mesh)
         Bandranges (emin - emax) and occupancy:
:BAN00158: 158   -0.060119   -0.048452  2.00000000
:BAN00159: 159   -0.057140   -0.048080  2.00000000
:BAN00160: 160   -0.057140   -0.046682  2.00000000
:BAN00161: 161   -0.052999   -0.044537  2.00000000
:BAN00162: 162   -0.052357   -0.042451  2.00000000
:BAN00163: 163   -0.046743   -0.036467  2.00000000
:BAN00164: 164   -0.046743   -0.036467  2.00000000
:BAN00165: 165   -0.024218    0.035797  2.00000000
:BAN00166: 166   -0.016224    0.037729  2.00000000
:BAN00167: 167    0.008489    0.087564  2.00000000
:BAN00168: 168    0.008489    0.125167  2.00000000
:BAN00169: 169    0.295111    0.398029  0.00000000
:BAN00170: 170    0.298798    0.398029  0.00000000
:BAN00171: 171    0.302763    0.405349  0.00000000
:BAN00172: 172    0.321014    0.405349  0.00000000
:BAN00173: 173    0.337698    0.423539  0.00000000
        Energy to separate low and high energystates:   -0.50114


:NOE  : NUMBER OF ELECTRONS          =  336.000

:FER  : F E R M I - ENERGY(TETRAH.M.)=   0.1251666015
:GMA  : POTENTIAL AND CHARGE CUT-OFF  12.00 Ry**.5

:POS001: ATOM   -1 X,Y,Z = 0.50000 0.50000 0.50000  MULT= 4  ZZ= 82.000  Pb        

       LMMAX 28
       LM=   0 0  2 0  2 1 -2 1  2 2 -2 2  4 0  4 1 -4 1  4 2 -4 2  4 3 -4 3  4 4 -4 4  6 0  6 1
        -6 1  6 2 -6 2  6 3 -6 3  6 4 -6 4  6 5 -6 5  6 6 -6 6

:CHA001: TOTAL VALENCE CHARGE INSIDE SPHERE   1 =  11.3295    (RMT=  2.5000 )
:PCS001: PARTIAL CHARGES SPHERE =  1 S,P,D,F,PX,PY,PZ,D-Z2,D-X2Y2,D-XY,D-XZ,D-YZ 
:QTL001: 1.3334 0.2812 9.6999 0.0127 0.0929 0.0936 0.0948 1.9478 1.9360 1.9465 1.9352 1.9345
        Q-s-low E-s-low   Q-p-low E-p-low   Q-d-low E-d-low   Q-f-low E-f-low
:EPL001:  0.0192 -0.9798    0.0091 -0.9711    9.6233 -0.9347    0.0011 -0.9811
        Q-s-hi  E-s-hi    Q-p-hi  E-p-hi    Q-d-hi  E-d-hi    Q-f-hi  E-f-hi 
:EPH001:  1.3141 -0.2655    0.2722 -0.1200    0.0766 -0.0831    0.0117 -0.0838

                      QXX         QXY         QYY         QZZ       UP TO R
:VZZ001:             0.67041     0.69315     0.12922    -0.79963       2.500

:POS002: ATOM   -2 X,Y,Z = 0.48491 0.94655 0.25000  MULT= 4  ZZ= 55.000  Cs        

       LMMAX 28
       LM=   0 0  1 1 -1 1  2 0  2 2 -2 2  3 1 -3 1  3 3 -3 3  4 0  4 2 -4 2  4 4 -4 4  5 1 -5 1
         5 3 -5 3  5 5 -5 5  6 0  6 2 -6 2  6 4 -6 4  6 6 -6 6

:CHA002: TOTAL VALENCE CHARGE INSIDE SPHERE   2 =  16.2782    (RMT=  2.5000 )
:PCS002: PARTIAL CHARGES SPHERE =  2 S,P,D,F,PX,PY,PZ,D-Z2,D-X2Y2,D-XY,D-XZ,D-YZ 
:QTL002: 1.7977 4.468110.0104 0.0019 1.4886 1.4897 1.4898 2.0016 2.0025 2.0013 2.0022 2.0029
        Q-s-low E-s-low   Q-p-low E-p-low   Q-d-low E-d-low   Q-f-low E-f-low
:EPL002:  1.7873 -1.4035    0.0023 -0.9705    9.9946 -4.8745    0.0001 -1.0463
        Q-s-hi  E-s-hi    Q-p-hi  E-p-hi    Q-d-hi  E-d-hi    Q-f-hi  E-f-hi 
:EPH002:  0.0104 -0.1029    4.4658 -0.4234    0.0158 -0.0765    0.0018 -0.0693

                      QXX         QXY         QYY         QZZ       UP TO R
:VZZ002:             0.56462     1.57428    -0.20595    -0.35867       2.500

:POS003: ATOM   -3 X,Y,Z = 0.56000 0.50750 0.25000  MULT= 4  ZZ= 35.000  Br        

       LMMAX 28
       LM=   0 0  1 1 -1 1  2 0  2 2 -2 2  3 1 -3 1  3 3 -3 3  4 0  4 2 -4 2  4 4 -4 4  5 1 -5 1
         5 3 -5 3  5 5 -5 5  6 0  6 2 -6 2  6 4 -6 4  6 6 -6 6

:CHA003: TOTAL VALENCE CHARGE INSIDE SPHERE   3 =  15.9040    (RMT=  2.5000 )
:PCS003: PARTIAL CHARGES SPHERE =  3 S,P,D,F,PX,PY,PZ,D-Z2,D-X2Y2,D-XY,D-XZ,D-YZ 
:QTL003: 1.7967 4.090110.0142 0.0025 1.3823 1.3865 1.3213 2.0108 2.0004 2.0002 2.0017 2.0010
        Q-s-low E-s-low   Q-p-low E-p-low   Q-d-low E-d-low   Q-f-low E-f-low
:EPL003:  1.7639 -0.9728    0.0062 -0.9382   10.0001 -4.3691    0.0006 -0.9481
        Q-s-hi  E-s-hi    Q-p-hi  E-p-hi    Q-d-hi  E-d-hi    Q-f-hi  E-f-hi 
:EPH003:  0.0328 -0.2804    4.0839 -0.0842    0.0141 -0.1474    0.0019 -0.1974

                      QXX         QXY         QYY         QZZ       UP TO R
:VZZ003:            -5.46348    -0.41887    -6.81447    12.27795       2.500

:POS004: ATOM   -4 X,Y,Z = 0.19962 0.70227 0.46752  MULT= 8  ZZ= 35.000  Br        

       LMMAX 49

:CHA004: TOTAL VALENCE CHARGE INSIDE SPHERE   4 =  15.9041    (RMT=  2.5000 )
:PCS004: PARTIAL CHARGES SPHERE =  4 S,P,D,F,PX,PY,PZ,D-Z2,D-X2Y2,D-XY,D-XZ,D-YZ 
:QTL004: 1.7964 4.090910.0138 0.0024 1.3555 1.3523 1.3831 2.0027 2.0019 2.0073 2.0009 2.0010
        Q-s-low E-s-low   Q-p-low E-p-low   Q-d-low E-d-low   Q-f-low E-f-low
:EPL004:  1.7643 -0.9727    0.0060 -0.9373   10.0001 -4.3691    0.0006 -0.9508
        Q-s-hi  E-s-hi    Q-p-hi  E-p-hi    Q-d-hi  E-d-hi    Q-f-hi  E-f-hi 
:EPH004:  0.0321 -0.2809    4.0849 -0.0842    0.0137 -0.1500    0.0019 -0.1920

                      QXX         QXY         QYY         QZZ       UP TO R
:VZZ004:             2.29525    -8.74454     3.32072    -5.61596       2.500

:CHA  : TOTAL VALENCE CHARGE INSIDE UNIT CELL =     336.000000

:SUM  : SUM OF EIGENVALUES =        -810.362240982


        1.ATOM      Pb                   19 CORE STATES
:1S 001: 1S               -6460.818695408 Ry
:2S 001: 2S               -1154.159694700 Ry
:2PP001: 2P*              -1108.556987190 Ry
:2P 001: 2P                -947.768649549 Ry
:3S 001: 3S                -276.512764070 Ry
:3PP001: 3P*               -255.910978029 Ry
:3P 001: 3P                -220.043095295 Ry
:3DD001: 3D*               -186.104085822 Ry
:3D 001: 3D                -178.466933655 Ry
:4S 001: 4S                 -62.052203579 Ry
:4PP001: 4P*                -53.142050294 Ry
:4P 001: 4P                 -44.343203484 Ry
:4DD001: 4D*                -29.811839181 Ry
:4D 001: 4D                 -28.169879952 Ry
:5S 001: 5S                  -9.952790466 Ry
:5PP001: 5P*                 -6.901568730 Ry
:5P 001: 5P                  -5.242093772 Ry
:4FF001: 4F*                 -9.335954847 Ry
:4F 001: 4F                  -8.965869836 Ry

        2.ATOM      Cs                   12 CORE STATES
       CORE-FORCE in mRy/a.u. = |F|      Fx             Fy             Fz
:FCO002:   2.ATOM      7.113770653997     -7.034189058476     -1.061092459344      0.000000000000

:1S 002: 1S               -2625.780660790 Ry
:2S 002: 2S                -411.321743820 Ry
:2PP002: 2P*               -387.104562637 Ry
:2P 002: 2P                -361.247139630 Ry
:3S 002: 3S                 -85.022933545 Ry
:3PP002: 3P*                -74.888877960 Ry
:3P 002: 3P                 -69.936046415 Ry
:3DD002: 3D*                -52.063559799 Ry
:3D 002: 3D                 -51.010856069 Ry
:4S 002: 4S                 -15.557607219 Ry
[...]
:EIG00141:      -0.0789519   -0.0774187   -0.0762619   -0.0711349   -0.0619646
:EIG00146:      -0.0509892   -0.0493991   -0.0478814   -0.0462277   -0.0439439
 
:EIG00151:      -0.0428615   -0.0395823   -0.0369870   -0.0352124   -0.0346991
:EIG00156:      -0.0338370   -0.0329944   -0.0263959   -0.0203923   -0.0187844
:EIG00161:      -0.0170641   -0.0132335   -0.0094926   -0.0069710    0.0044383
:EIG00166:       0.0179557    0.0539155    0.0980953    0.2340505    0.2365650
:EIG00171:       0.2444728    0.2663315    0.2796822    0.2971206    0.3589735
:EIG00176:       0.4462725    0.4517385    0.4532956    0.4546582    0.4605482
:EIG00181:       0.4704089    0.4740059    0.4833891    0.4902197    0.4985538
:EIG00186:       0.5062440    0.5067003    0.5088554    0.5138729    0.5167873
:EIG00191:       0.5178964    0.5242676    0.5291008    0.5380074    0.5468314
:EIG00196:       0.5491872    0.5694567    0.5723142    0.5794842    0.5874440
 
:EIG00201:       0.5885769    0.5932540    0.6014012    0.6134752    0.6164714
:EIG00206:       0.6330825    0.6379773    0.6414456    0.6522051    0.6598738
:EIG00211:       0.6711558    0.6859023    0.6976920    0.7054174    0.7125171
:EIG00216:       0.7146966    0.7222159    0.7262615    0.7362610    0.7466199
:EIG00221:       0.7492965    0.7518362    0.7559695    0.7856843    0.8058765
:EIG00226:       0.8104061    0.8148438    0.8173721    0.8230309    0.8244350
:EIG00231:       0.8310132    0.8380945    0.8426973    0.8522040    0.8715847
:EIG00236:       0.8834628    0.8897102    0.8975625    0.9063007    0.9101970
:EIG00241:       0.9144571    0.9205002    0.9299229    0.9393087    0.9512026
:EIG00246:       0.9540638    0.9564365    0.9685745    0.9754257    0.9768298
 
:EIG00251:       0.9797729    0.9831971    0.9994674    1.0152511    1.0205532
:EIG00256:       1.0251651    1.0387907    1.0418241    1.0443615    1.0495056
:EIG00261:       1.0513480    1.0593144    1.0624515    1.0662862    1.0702549
:EIG00266:       1.0738990    1.0792408    1.0807300    1.0883879    1.0916723
:EIG00271:       1.0946070    1.0983334    1.1098314    1.1128819    1.1165414
:EIG00276:       1.1207980    1.1243669    1.1288521    1.1311376    1.1337884
:EIG00281:       1.1385181    1.1437792    1.1460123    1.1484154    1.1527752
:EIG00286:       1.1570030    1.1604323    1.1723578    1.1777511    1.1819062
:EIG00291:       1.1846672    1.1894360    1.1928706    1.2001589    1.2028834
:EIG00296:       1.2044918    1.2109410    1.2128374    1.2192473    1.2262721
 
:EIG00301:       1.2327228    1.2350005    1.2385956    1.2441253    1.2460737
:EIG00306:       1.2532140    1.2645756    1.2660963    1.2694973    1.2733282
:EIG00311:       1.2849116    1.2971034    1.2991952    1.3023041    1.3112722
:EIG00316:       1.3196538    1.3307402    1.3324287    1.3391699    1.3443800
:EIG00321:       1.3522446    1.3595528    1.3613946    1.3723574    1.3728365
:EIG00326:       1.3826683    1.3856277    1.3906508    1.3963812    1.3995335
:EIG00331:       1.4037746    1.4083227    1.4127267    1.4156193    1.4230455
:EIG00336:       1.4324118    1.4378323    1.4449368    1.4464447    1.4514502
:EIG00341:       1.4527701    1.4545490    1.4560116    1.4659131    1.4695891
:EIG00346:       1.4789932    1.4847446    1.4882922    1.4920759    1.4931681
 
:EIG00351:       1.4976038    1.5034963    1.5096068    1.5119950    1.5212477
:EIG00356:       1.5239873    1.5282448    1.5325869    1.5422066    1.5455586
:EIG00361:       1.5489718    1.5529616    1.5741458    1.5785691    1.5858319
:EIG00366:       1.5892758    1.5976901    1.5988889
       ********************************************************

:KPT   :      NUMBER OF K-POINTS:   144
       Insulator, EF-inconsistency corrected
:GAP (global)   :  0.135955 Ry =     1.850 eV (accurate value if proper k-mesh)
         Bandranges (emin - emax) and occupancy:
:BAN00158: 158   -0.032646   -0.019245  2.00000000
:BAN00159: 159   -0.030983   -0.018488  2.00000000
:BAN00160: 160   -0.030983   -0.018488  2.00000000
:BAN00161: 161   -0.028991   -0.014465  2.00000000
:BAN00162: 162   -0.028991   -0.013234  2.00000000
:BAN00163: 163   -0.016888   -0.006805  2.00000000
:BAN00164: 164   -0.016888   -0.006805  2.00000000
:BAN00165: 165   -0.004004    0.021827  2.00000000
:BAN00166: 166   -0.003277    0.024693  2.00000000
:BAN00167: 167    0.000102    0.063479  2.00000000
:BAN00168: 168    0.000102    0.098095  2.00000000
:BAN00169: 169    0.234051    0.356450  0.00000000
:BAN00170: 170    0.236565    0.356450  0.00000000
:BAN00171: 171    0.244473    0.363266  0.00000000
:BAN00172: 172    0.261740    0.363266  0.00000000
:BAN00173: 173    0.276173    0.376179  0.00000000
        Energy to separate low and high energystates:   -0.23742


:NOE  : NUMBER OF ELECTRONS          =  336.000

:FER  : F E R M I - ENERGY(TETRAH.M.)=   0.0980953137
:GMA  : POTENTIAL AND CHARGE CUT-OFF  12.00 Ry**.5

:POS001: ATOM   -1 X,Y,Z = 0.50000 0.50000 0.50000  MULT= 4  ZZ= 82.000  Pb        

       LMMAX 28
       LM=   0 0  2 0  2 1 -2 1  2 2 -2 2  4 0  4 1 -4 1  4 2 -4 2  4 3 -4 3  4 4 -4 4  6 0  6 1
        -6 1  6 2 -6 2  6 3 -6 3  6 4 -6 4  6 5 -6 5  6 6 -6 6

:CHA001: TOTAL VALENCE CHARGE INSIDE SPHERE   1 =  11.5291    (RMT=  2.5000 )
:PCS001: PARTIAL CHARGES SPHERE =  1 S,P,D,F,PX,PY,PZ,D-Z2,D-X2Y2,D-XY,D-XZ,D-YZ 
:QTL001: 1.3769 0.4044 9.7307 0.0147 0.1343 0.1349 0.1352 1.9543 1.9418 1.9531 1.9411 1.9404
        Q-s-low E-s-low   Q-p-low E-p-low   Q-d-low E-d-low   Q-f-low E-f-low
:EPL001:  1.0961 -0.4958    0.0161 -0.8255    9.6623 -1.0962    0.0014 -0.8791
        Q-s-hi  E-s-hi    Q-p-hi  E-p-hi    Q-d-hi  E-d-hi    Q-f-hi  E-f-hi 
:EPH001:  0.2808  0.0027    0.3883 -0.1234    0.0684 -0.0591    0.0132 -0.0608

                      QXX         QXY         QYY         QZZ       UP TO R
:VZZ001:             0.38214     0.75692    -0.15752    -0.22462       2.500

:POS002: ATOM   -2 X,Y,Z = 0.48491 0.94655 0.25000  MULT= 4  ZZ= 55.000  Cs        

       LMMAX 28
       LM=   0 0  1 1 -1 1  2 0  2 2 -2 2  3 1 -3 1  3 3 -3 3  4 0  4 2 -4 2  4 4 -4 4  5 1 -5 1
         5 3 -5 3  5 5 -5 5  6 0  6 2 -6 2  6 4 -6 4  6 6 -6 6

:CHA002: TOTAL VALENCE CHARGE INSIDE SPHERE   2 =  16.3063    (RMT=  2.5000 )
:PCS002: PARTIAL CHARGES SPHERE =  2 S,P,D,F,PX,PY,PZ,D-Z2,D-X2Y2,D-XY,D-XZ,D-YZ 
:QTL002: 1.8004 4.490610.0131 0.0021 1.4959 1.4972 1.4975 2.0021 2.0031 2.0017 2.0027 2.0035
        Q-s-low E-s-low   Q-p-low E-p-low   Q-d-low E-d-low   Q-f-low E-f-low
:EPL002:  1.7893 -1.4209    4.3494 -0.4502    9.9947 -4.8979    0.0001 -0.9415
        Q-s-hi  E-s-hi    Q-p-hi  E-p-hi    Q-d-hi  E-d-hi    Q-f-hi  E-f-hi 
:EPH002:  0.0111 -0.0757    0.1411 -0.0620    0.0184 -0.0478    0.0020 -0.0389

                      QXX         QXY         QYY         QZZ       UP TO R
:VZZ002:             0.78035     2.07148    -0.19723    -0.58312       2.500

:POS003: ATOM   -3 X,Y,Z = 0.56000 0.50750 0.25000  MULT= 4  ZZ= 35.000  Br        

       LMMAX 28
       LM=   0 0  1 1 -1 1  2 0  2 2 -2 2  3 1 -3 1  3 3 -3 3  4 0  4 2 -4 2  4 4 -4 4  5 1 -5 1
         5 3 -5 3  5 5 -5 5  6 0  6 2 -6 2  6 4 -6 4  6 6 -6 6

:CHA003: TOTAL VALENCE CHARGE INSIDE SPHERE   3 =  15.7316    (RMT=  2.5000 )
:PCS003: PARTIAL CHARGES SPHERE =  3 S,P,D,F,PX,PY,PZ,D-Z2,D-X2Y2,D-XY,D-XZ,D-YZ 
:QTL003: 1.7862 3.927610.0142 0.0029 1.3413 1.3481 1.2382 2.0104 2.0004 2.0002 2.0020 2.0013
        Q-s-low E-s-low   Q-p-low E-p-low   Q-d-low E-d-low   Q-f-low E-f-low
:EPL003:  1.7736 -0.9309    0.0850 -0.5121   10.0046 -4.3217    0.0014 -0.7118
        Q-s-hi  E-s-hi    Q-p-hi  E-p-hi    Q-d-hi  E-d-hi    Q-f-hi  E-f-hi 
:EPH003:  0.0126 -0.0794    3.8426 -0.0562    0.0096 -0.0517    0.0015 -0.0921

                      QXX         QXY         QYY         QZZ       UP TO R
:VZZ003:            -9.19670    -0.29544   -11.24538    20.44208       2.500

:POS004: ATOM   -4 X,Y,Z = 0.19962 0.70227 0.46752  MULT= 8  ZZ= 35.000  Br        

       LMMAX 49

:CHA004: TOTAL VALENCE CHARGE INSIDE SPHERE   4 =  15.7302    (RMT=  2.5000 )
:PCS004: PARTIAL CHARGES SPHERE =  4 S,P,D,F,PX,PY,PZ,D-Z2,D-X2Y2,D-XY,D-XZ,D-YZ 
:QTL004: 1.7861 3.926810.0139 0.0029 1.2948 1.2894 1.3427 2.0026 2.0022 2.0070 2.0010 2.0011
        Q-s-low E-s-low   Q-p-low E-p-low   Q-d-low E-d-low   Q-f-low E-f-low
:EPL004:  1.7736 -0.9298    0.0827 -0.5115   10.0045 -4.3209    0.0014 -0.7141
        Q-s-hi  E-s-hi    Q-p-hi  E-p-hi    Q-d-hi  E-d-hi    Q-f-hi  E-f-hi 
:EPH004:  0.0124 -0.0811    3.8441 -0.0554    0.0094 -0.0541    0.0015 -0.0882

                      QXX         QXY         QYY         QZZ       UP TO R
:VZZ004:             4.00525   -14.53574     5.63243    -9.63768       2.500

:CHA  : TOTAL VALENCE CHARGE INSIDE UNIT CELL =     336.000000

:SUM  : SUM OF EIGENVALUES =        -811.503318935


        1.ATOM      Pb                   19 CORE STATES
:1S 001: 1S               -6461.010654223 Ry
:2S 001: 2S               -1154.341151950 Ry
:2PP001: 2P*              -1108.740554608 Ry
:2P 001: 2P                -947.950671176 Ry
:3S 001: 3S                -276.686076572 Ry
:3PP001: 3P*               -256.084816512 Ry
:3P 001: 3P                -220.216272571 Ry
:3DD001: 3D*               -186.277900311 Ry
:3D 001: 3D                -178.640491623 Ry
:4S 001: 4S                 -62.222260194 Ry
:4PP001: 4P*                -53.312162664 Ry
:4P 001: 4P                 -44.513144655 Ry
:4DD001: 4D*                -29.981702293 Ry
:4D 001: 4D                 -28.339673304 Ry
:5S 001: 5S                 -10.121142539 Ry
:5PP001: 5P*                 -7.069916578 Ry
:5P 001: 5P                  -5.410250078 Ry
:4FF001: 4F*                 -9.505327653 Ry
:4F 001: 4F                  -9.135211342 Ry

        2.ATOM      Cs                   12 CORE STATES
       CORE-FORCE in mRy/a.u. = |F|      Fx             Fy             Fz
:FCO002:   2.ATOM      9.882469291495     -7.639632618236     -6.268908418195      0.000000000000

:1S 002: 1S               -2625.834008967 Ry
:2S 002: 2S                -411.364855588 Ry
:2PP002: 2P*               -387.149592579 Ry
:2P 002: 2P                -361.291526598 Ry
:3S 002: 3S                 -85.054502042 Ry
:3PP002: 3P*                -74.920925189 Ry
:3P 002: 3P                 -69.967667110 Ry
:3DD002: 3D*                -52.096203344 Ry
:3D 002: 3D                 -51.043333412 Ry
:4S 002: 4S                 -15.582115699 Ry
:4PP002: 4P*                -11.944122524 Ry
:4P 002: 4P                 -10.924794293 Ry

        3.ATOM      Br                    7 CORE STATES
       CORE-FORCE in mRy/a.u. = |F|      Fx             Fy             Fz
:FCO003:   3.ATOM     78.491813570592    -65.879790667587     42.671043802507      0.000000000000

:1S 003: 1S                -976.299824170 Ry
:2S 003: 2S                -126.537982388 Ry
:2PP003: 2P*               -113.999527409 Ry
:2P 003: 2P                -110.514913198 Ry
:3S 003: 3S                 -16.828042180 Ry
:3PP003: 3P*                -12.467749717 Ry
:3P 003: 3P                 -11.964706460 Ry

        4.ATOM      Br                    7 CORE STATES
       CORE-FORCE in mRy/a.u. = |F|      Fx             Fy             Fz
:FCO004:   4.ATOM    104.718742857302     71.751166210343     58.526678010187     48.912301256038

:1S 004: 1S                -976.299044543 Ry
:2S 004: 2S                -126.537181402 Ry
:2PP004: 2P*               -113.998729356 Ry
:2P 004: 2P                -110.514114712 Ry
:3S 004: 3S                 -16.827221651 Ry
:3PP004: 3P*                -12.466928525 Ry
:3P 004: 3P                 -11.963884561 Ry
:CINT001 Core Integral Atom   1   67.995146
:CINT002 Core Integral Atom   2   35.999907
:CINT003 Core Integral Atom   3   17.999988
:CINT004 Core Integral Atom   4   17.999988

       DENSITY AT NUCLEUS
        JATOM        VALENCE       SEMI-CORE          CORE           TOTAL
:RTO001:   1     2061.162629        0.000000  9871868.835278  9873929.997906
:RTO002:   2      329.766473        0.000000   436458.977463   436788.743936
:RTO003:   3       74.292309        0.000000    45621.784400    45696.076709
:RTO004:   4       74.285817        0.000000    45621.785674    45696.071490
     
       CHARGES OF NEW CHARGE DENSITY
:NTO   : INTERSTITIAL CHARGE =    35.890470
:NPC   : PW Pseudocharge     =   101.418352
:NTO001: CHARGE SPHERE  1    =    79.524269
:NTO002: CHARGE SPHERE  2    =    52.306164
:NTO003: CHARGE SPHERE  3    =    33.731594
:NTO004: CHARGE SPHERE  4    =    33.730183

:NEC01: NUCLEAR AND ELECTRONIC CHARGE    968.00000   967.98004
     
       CHARGES OF OLD CHARGE DENSITY
:OTO   : INTERSTITIAL CHARGE =    35.910573
:OPC   : PW Pseudocharge     =   101.482546
:OTO001: CHARGE SPHERE  1    =    79.524393
:OTO002: CHARGE SPHERE  2    =    52.305982
:OTO003: CHARGE SPHERE  3    =    33.731612
:OTO004: CHARGE SPHERE  4    =    33.730185

:NEC02: NUCLEAR AND ELECTRONIC CHARGE    968.00000   968.00000
     
       CONVERGENCE TEST
:DTO001: DIFFERENCE IN SPHERE  1 =  0.0004719
:DTO002: DIFFERENCE IN SPHERE  2 =  0.0001699
:DTO003: DIFFERENCE IN SPHERE  3 =  0.0004358
:DTO004: DIFFERENCE IN SPHERE  4 =  0.0004366

:DIS  :  CHARGE DISTANCE       ( 0.0004719 for atom    1 spin 1)      0.0003902
 PW Mixed is         2247
 
******************************************************
* MULTISECANT MIXING VER9 RELEASE 10.4.0              *
* Standard Mode with controls                        *
* Fixed density scale                                *
* Regularization       1.000E-04                     *
* Trust Upper Limit    5.000E+00                     *
* Max Number of Memory Steps    8                    *
******************************************************
 
:PWTMP   3.9481E+03  2.5000E+03  5.2571E+03
:PLANE:  PW TOTAL      7.9815 DISTAN   1.27E-03  1.60E-02 %
:CHARG:  CLM/ATOM   1114.7796 DISTAN   4.82E-04  4.32E-05 %
 
Step History
        DMIX         DMIXT        Red     Pred      Trust     Lambda    MagRel    MagAbs     Beta
  1   3.5000E-02   3.5000E-02 -1.00E+00  1.00E+00 -1.00E+01  1.00E+00  3.50E-02  3.50E-02  1.00E+00
  2   2.5000E-02   2.5000E-02  3.61E-01  1.00E+00 -1.00E+01  1.00E+00  2.50E-02  9.03E-02  1.00E+00
  3   4.3214E-02   4.3214E-02  8.30E-01  1.00E+00 -1.00E+01  1.92E-02  4.32E-02  5.64E-02  1.00E+00
  4   1.0804E-01   1.0804E-01  8.33E-01  1.00E+00  3.25E-01  1.28E+00  1.08E-01  1.17E-01  9.97E-01
  5   2.4716E-01   1.5576E-01  6.99E-01  7.76E-01  6.03E-01  1.24E+00  2.42E-01  2.18E-01  1.00E+00
  6   3.5000E-01   2.8389E-01  4.57E-01  5.12E-01  1.42E+00  1.09E+00  4.90E-01  3.09E-01  1.00E+00
  7   3.5000E-01   3.5000E-01  7.33E-02  1.51E-01  3.99E+00  8.32E-01  9.72E-01  2.80E-01  1.00E+00
  8   2.7973E-01   2.7973E-01  4.66E-01  6.32E-01  1.50E+01  1.13E+00  4.92E-01  1.04E-02  1.00E+00
  9   3.5000E-01   3.5000E-01 -1.00E+00  6.14E-01  1.88E+01  1.00E+00  6.67E-01  6.55E-03  1.00E+00
:JACOBIANS    2.025E+00   1.575E+00
  
:NORMS:  1/Froebius, Min, Max, Used   0.8871E+00  0.5575E+00  0.1003E+01  0.9086E+00
:INFO :  Number of Memory Steps    8 Skipping    0
:INFO :  SLambda=    1.0014202996  Max    1.0014202996
:PREDicted Charge, CTotal, PW Trust    1.452E-03   4.487E-03   2.104E-02
:PREDicted DMix, Beta, BLim   5.1672E-01  1.1216E+00  1.5492E+01

Eigenvalues, unscaled except for SY+YY
   #     SY Real        SY Imag          SS             YY         SY+YY Real      SY+YY Imag
   1   3.935055E+00   0.000000E+00   3.958390E+00   4.794900E+00   8.717235E+00   0.000000E+00
   2   1.463079E+00   0.000000E+00   1.239684E+00   1.865192E+00   3.345773E+00   0.000000E+00
   3   1.148680E+00   0.000000E+00   1.056663E+00   1.147252E+00   2.295346E+00   0.000000E+00
   4   6.570959E-02   0.000000E+00   2.945280E-02   1.477027E-01   2.184079E-01   0.000000E+00
   5   2.240521E-02   0.000000E+00   1.145387E-02   4.311860E-02   6.575244E-02   0.000000E+00
   6   8.924696E-04   0.000000E+00   3.778357E-04   1.821963E-03   2.720455E-03   0.000000E+00
   7  -1.578029E-15   0.000000E+00   1.062813E-06   1.153074E-05   4.233765E-07   0.000000E+00
   8   3.453599E-06   0.000000E+00   5.640278E-17   4.195633E-07   1.503775E-05   0.000000E+00
 
:INFO :  Singular value  8.722E+00 Weight  1.000E+00 Projection  1.002E-04
:INFO :  Singular value  3.348E+00 Weight  1.000E+00 Projection -9.453E-04
:INFO :  Singular value  2.293E+00 Weight  1.000E+00 Projection  7.254E-05
:INFO :  Singular value  2.184E-01 Weight  1.000E+00 Projection -8.466E-04
:INFO :  Singular value  6.573E-02 Weight  9.999E-01 Projection -7.536E-03
:INFO :  Singular value  2.720E-03 Weight  9.699E-01 Projection -7.230E-03
:INFO :  Singular value  1.504E-05 Weight  9.825E-04 Projection -3.894E-05
:INFO :  Singular value  4.234E-07 Weight  7.796E-07 Projection  3.993E-07
:RANK :  ACTIVE   5.97/8  =  74.63 % ; YY RANK   5.94/8  =  74.20 %
 
:BLIM :  VZERO Control Off
:TRUST:  Step 2.25E+01  Charge 1.21E-01 (e) CTO  3.43E-01 (e) PW  1.33E+00 (e)
:DIRM :  MEMORY  8/8  SCALE   1.000 RED  0.24 PRED  0.61 NEXT  0.52 
:TRAVE:  Charge 9.15E-03 (e) CTO  1.94E-02 (e) PW  1.19E-01 (e)
:DIRP :  |MSR1|= 9.729E-04 |PRATT|= 1.274E-03 ANGLE=  10.8 DEGREES
:DIRQ :  |MSR1|= 1.204E-03 |PRATT|= 1.928E-03 ANGLE=  14.8 DEGREES
:DIRT :  |MSR1|= 1.548E-03 |PRATT|= 2.311E-03 ANGLE=  14.6 DEGREES
:MIX  :   MSE1   REGULARIZATION:  4.79E-04 GREED: 0.35000  Newton 1.00  0.6699                
     
       CHARGES OF MIXED CHARGE DENSITY
:CTO   : INTERSTITIAL CHARGE =    35.910168
:CPC   : PW Pseudocharge     =   101.475374
:CTO001: CHARGE SPHERE  1    =    79.524370
:CTO002: CHARGE SPHERE  2    =    52.306111
:CTO003: CHARGE SPHERE  3    =    33.731605
:CTO004: CHARGE SPHERE  4    =    33.730186

:NEC03: NUCLEAR AND ELECTRONIC CHARGE    968.00000   968.00000

PW CHANGE     H    K    L      Current       Change    Residue
:PTO001:      0    0    0  2.61334665E-02 -1.441E-06 -1.512E-06
:PTO006:     -1    0   -1 -2.34403996E-03 -2.174E-09 -8.004E-08
:PTO007:      0    0   -2  2.52160795E-03 -7.396E-07 -1.277E-06
:PTO008:     -1   -1    0  4.80091532E-03 -1.260E-06 -2.263E-06
:PTO009:     -1   -1   -1 -1.02975832E-02 -3.694E-07 -8.191E-07
:PTO012:      0   -2    0  6.74022864E-03  1.085E-06  1.597E-06
:PTO013:     -1   -1   -2  2.10848692E-02  5.172E-06  7.719E-06
:PTO014:     -2    0    0  6.71711830E-03  1.200E-06  1.810E-06
:PTO015:      0   -2   -1  5.59733864E-03  6.847E-07  1.232E-06
:PTO018:     -1   -2    0 -1.01360556E-02  1.282E-06  1.672E-06
:PTO019:     -2   -1    0  1.11256882E-02 -1.313E-06 -1.712E-06
:PTO021:     -1   -2   -1  1.15646845E-02 -1.526E-06 -2.009E-06

:ENE  : ********** TOTAL ENERGY IN Ry =      -292095.23937962

       TOTAL FORCE IN mRy/a.u. = |F|     Fx             Fy             Fz     with/without FOR in case.in2
:FOR001:   1.ATOM          0.000          0.000          0.000          0.000 partial forces
:FOR002:   2.ATOM          0.622         -0.244         -0.572          0.000 partial forces
:FOR003:   3.ATOM         21.727         19.651         -9.269          0.000 partial forces
:FOR004:   4.ATOM         31.007        -20.723        -17.499        -15.025 partial forces
       TOTAL FORCE WITH RESPECT TO GLOBAL CARTESIAN COORDINATES:
:FCA001:   1.ATOM                         0.000          0.000          0.000 partial forces
:FCA002:   2.ATOM                        -0.244         -0.572          0.000 partial forces
:FCA003:   3.ATOM                        19.651         -9.269          0.000 partial forces
:FCA004:   4.ATOM                       -20.723        -17.499        -15.025 partial forces
       TOTAL FORCE WITH RESPECT TO THE GLOBAL COORDINATE SYSTEM:
:FGL001:   1.ATOM                 0.000000000     0.000000000     0.000000000 partial forces
:FGL002:   2.ATOM                -0.244201000    -0.571829118     0.000000000 partial forces
:FGL003:   3.ATOM                19.650837886    -9.268599848     0.000000000 partial forces
:FGL004:   4.ATOM               -20.722875544   -17.499137781   -15.025258068 partial forces
