
:LABEL1: Calculations in /home/cmueller/wien/FZU/src/perovskite/10000_gga
:LABEL2: on cv036 at Wed Jun 26 06:01:33 PM CEST 2024
:LABEL3: using WIEN2k_19.1 (Release 25/6/2019) in /home/cmueller/WIENROOT
:LABEL4: using the command: run_lapw
 Flat Integration
 New Mode for Coulomb Integral
 Consistent 3/8+Simpson combinations
 Extension of core to zero
 LDM version in phi
 Fifth-order quadrature in outwin


            ---------
:ITE001:  1. ITERATION
            ---------

:NATO :    4 INDEPENDENT AND   20 TOTAL ATOMS IN UNITCELL
       SUBSTANCE: blebleble                                                   

       LATTICE                      = P   
:POT  : POTENTIAL OPTION EX_PBE EC_PBE VX_PBE VC_PBE
:LAT  : LATTICE CONSTANTS= 15.19415 15.66734 22.08372    1.571    1.571    1.571
:VOL  : UNIT CELL VOLUME =    5257.07306
       MODE OF CALCULATION IS       = RELA
       NON-SPINPOLARIZED CALCULATION
:IFFT  : FFT-parameters:  120  120  180 Factor: 2.00


   CONVERGENCE PARAMETER FOR PSEUDOCHARGE: NCON=  9
   MAXIMAL VALUE OF RMT(JATOM)*ABSK(NKK) : RK  =29.99804


:VKCOUL :  VK-COUL convergence: 0.423E-07
       ATOMNUMBER=  1 Pb         VCOUL-ZERO =  0.10897E+00
:EFG001:                        EFG         =     0.00590   *10**21  V / m**2
                               V20  TOT/SRF=     0.00113     0.00195
                               V22  TOT/SRF=    -0.00027    -0.00077
                               V22M TOT/SRF=    -0.00029    -0.00093
                               V21  TOT/SRF=     0.00242     0.00330
                               V21M TOT/SRF=    -0.00473    -0.00516

             -0.00092   -0.00029    0.00242       -0.00105    0.00000    0.00000
             -0.00029   -0.00038   -0.00473        0.00000    0.00590    0.00000
              0.00242   -0.00473    0.00130        0.00000    0.00000   -0.00485

         MAIN DIRECTIONS OF THE EFG   1.0000  0.3879 -0.5274
                                      0.5164 -0.7730  1.0000
                                      0.0112  1.0000  0.9776
:ANG001:  ANGLE WITH OLD X-AXIS =        33.2

:ETA001:                         ASYMM. ETA =     0.64411


       ATOMNUMBER=  2 Cs         VCOUL-ZERO = -0.49697E-01
:EFG002:                        EFG         =     0.00079   *10**21  V / m**2
                               V20  TOT/SRF=    -0.00038    -0.00033
                               V22  TOT/SRF=    -0.00031    -0.00059
                               V22M TOT/SRF=    -0.00049    -0.00143
                               V21  TOT/SRF=     0.00000     0.00000
                               V21M TOT/SRF=     0.00000     0.00000

             -0.00009   -0.00049    0.00000       -0.00036    0.00000    0.00000
             -0.00049    0.00053    0.00000        0.00000    0.00079    0.00000
              0.00000    0.00000   -0.00043        0.00000    0.00000   -0.00043

         MAIN DIRECTIONS OF THE EFG   1.0000 -0.5459  0.0000
                                      0.5459  1.0000  0.0000
                                      0.0000  0.0000  1.0000
:ANG002:  ANGLE WITH OLD X-AXIS =        28.6

:ETA002:                         ASYMM. ETA =     0.09356


       ATOMNUMBER=  3 Br         VCOUL-ZERO =  0.28031E+00
:EFG003:                        EFG         =    -0.02231   *10**21  V / m**2
                               V20  TOT/SRF=     0.01925     0.05961
                               V22  TOT/SRF=     0.00410     0.00562
                               V22M TOT/SRF=    -0.01042    -0.01150
                               V21  TOT/SRF=     0.00000     0.00000
                               V21M TOT/SRF=     0.00000     0.00000

             -0.00702   -0.01042    0.00000        0.00008    0.00000    0.00000
             -0.01042   -0.01521    0.00000        0.00000   -0.02231    0.00000
              0.00000    0.00000    0.02223        0.00000    0.00000    0.02223

         MAIN DIRECTIONS OF THE EFG   1.0000  0.6813  0.0000
                                     -0.6813  1.0000  0.0000
                                      0.0000  0.0000  1.0000
:ANG003:  ANGLE WITH OLD X-AXIS =        34.3

:ETA003:                         ASYMM. ETA =     0.99277


       ATOMNUMBER=  4 Br         VCOUL-ZERO =  0.28025E+00
:EFG004:                        EFG         =     0.02212   *10**21  V / m**2
                               V20  TOT/SRF=    -0.00625    -0.02554
                               V22  TOT/SRF=    -0.00319    -0.00440
                               V22M TOT/SRF=    -0.01622    -0.04902
                               V21  TOT/SRF=    -0.00456    -0.00425
                               V21M TOT/SRF=     0.00611     0.00781

              0.00042   -0.01622   -0.00456        0.02212    0.00000    0.00000
             -0.01622    0.00679    0.00611        0.00000   -0.01296    0.00000
             -0.00456    0.00611   -0.00722        0.00000    0.00000   -0.00916

         MAIN DIRECTIONS OF THE EFG  -0.8182  1.0000  0.2387
                                      1.0000  0.8580 -0.1399
                                      0.3353 -0.1186  1.0000
:ANG004:  ANGLE WITH OLD X-AXIS =       128.5

:ETA004:                         ASYMM. ETA =     0.17181


     HELLMANN-FEYNMAN-FORCE IN mRy/a.u. = |F|  Fx       Fy             Fz
:FHF001:   1.ATOM      0.000000000000      0.000000000000      0.000000000000      0.000000000000

     HELLMANN-FEYNMAN-FORCE IN mRy/a.u. = |F|  Fx       Fy             Fz
:FHF002:   2.ATOM     13.212661606233     13.207363767740      0.374124347533      0.000000000000

     HELLMANN-FEYNMAN-FORCE IN mRy/a.u. = |F|  Fx       Fy             Fz
:FHF003:   3.ATOM    220.113963888524    -93.045637347661   -199.480992751907      0.000000000000

     HELLMANN-FEYNMAN-FORCE IN mRy/a.u. = |F|  Fx       Fy             Fz
:FHF004:   4.ATOM    174.202709980683     55.580955909951    107.026757789216    125.708450876934

:FIT001: LUSE= 13 SIGMA OF V-XC FIT FOR ATOM  1  0.7571362E-03
:FIT001: LUSE= 13 SIGMA OF V-XC FIT FOR ATOM  1  0.7571362E-03
:FIT002: LUSE= 13 SIGMA OF V-XC FIT FOR ATOM  2  0.1645418E-04
:FIT002: LUSE= 13 SIGMA OF V-XC FIT FOR ATOM  2  0.1645418E-04
:FIT003: LUSE= 13 SIGMA OF V-XC FIT FOR ATOM  3  0.7450639E-03
:FIT003: LUSE= 13 SIGMA OF V-XC FIT FOR ATOM  3  0.7450639E-03
:FIT004: LUSE= 13 SIGMA OF V-XC FIT FOR ATOM  4  0.6626845E-03
:FIT004: LUSE= 13 SIGMA OF V-XC FIT FOR ATOM  4  0.6626845E-03
:DEN  : DENSITY INTEGRAL  =       -114061.79163689   (Ry)
       ELS_POTENTIAL_AT Z=0 and Z=0.5:  -0.57564  -0.57564
       ELS_POTENTIAL_AT Y=0 and Y=0.5:  -0.47943  -0.47943
:VZERO:v0,v0c,v0x  -1.32226  -0.57564  -0.74662 v5,v5c,v5x  -1.32226  -0.57564  -0.74662
:VZERY:v0,v0c,v0x  -1.13920  -0.47943  -0.65976 v5,v5c,v5x  -1.13920  -0.47943  -0.65976
:VZERX:v0,v0c,v0x  -1.13400  -0.48141  -0.65258 v5,v5c,v5x  -1.13400  -0.48141  -0.65258
:LMAX-WF:   10   Non-Spherical LMAX:   4

          ATOMIC SPHERE DEPENDENT PARAMETERS FOR ATOM  Pb        
:e__0001: OVERALL ENERGY PARAMETER IS    0.3000
          OVERALL BASIS SET ON ATOM IS LAPW
:E2_0001: E( 2)=    0.7000
             APW+lo
:E2_0001: E( 2)=   -0.9369   E(BOTTOM)=   -1.175   E(TOP)=   -0.699  2  3   123
             LOCAL ORBITAL
:E0_0001: E( 0)=    0.3000
             APW+lo
:E1_0001: E( 1)=    0.3000
             APW+lo

          ATOMIC SPHERE DEPENDENT PARAMETERS FOR ATOM  Cs        
:e__0002: OVERALL ENERGY PARAMETER IS    0.3000
          OVERALL BASIS SET ON ATOM IS LAPW
:E2_0002: E( 2)=    0.3000
             APW+lo
:E2_0002: E( 2)=   -4.8572   E(BOTTOM)=   -4.869   E(TOP)=   -4.846  1  2   120
             LOCAL ORBITAL
:E0_0002: E( 0)=    0.7000
             APW+lo
:E0_0002: E( 0)=   -1.3662   E(BOTTOM)=   -2.049   E(TOP)=   -0.683  4  5   169
             LOCAL ORBITAL
:E1_0002: E( 1)=    0.7000
             APW+lo
:E1_0002: E( 1)=   -0.1934   E(BOTTOM)=   -1.166   E(TOP)=    0.779  3  4   199
             LOCAL ORBITAL

          ATOMIC SPHERE DEPENDENT PARAMETERS FOR ATOM  Br        
:e__0003: OVERALL ENERGY PARAMETER IS    0.3000
          OVERALL BASIS SET ON ATOM IS LAPW
:E2_0003: E( 2)=    0.3000
             APW+lo
:E2_0003: E( 2)=   -4.3424   E(BOTTOM)=   -4.346   E(TOP)=   -4.339  1  1   115
             LOCAL ORBITAL
:E0_0003: E( 0)=    0.7000
             APW+lo
:E0_0003: E( 0)=   -0.9471   E(BOTTOM)=   -1.512   E(TOP)=   -0.382  3  4   158
             LOCAL ORBITAL
:E1_0003: E( 1)=    0.3000
             APW+lo

          ATOMIC SPHERE DEPENDENT PARAMETERS FOR ATOM  Br        
:e__0004: OVERALL ENERGY PARAMETER IS    0.3000
          OVERALL BASIS SET ON ATOM IS LAPW
:E2_0004: E( 2)=    0.3000
             APW+lo
:E2_0004: E( 2)=   -4.3426   E(BOTTOM)=   -4.346   E(TOP)=   -4.339  1  1   119
             LOCAL ORBITAL
:E0_0004: E( 0)=    0.7000
             APW+lo
:E0_0004: E( 0)=   -0.9473   E(BOTTOM)=   -1.512   E(TOP)=   -0.382  3  4   153
             LOCAL ORBITAL
:E1_0004: E( 1)=    0.3000
             APW+lo

       K=   0.02083   0.02174   0.03125            1
:RKM  : MATRIX SIZE  2237LOs: 308  RKM= 7.00  WEIGHT= 8.00  PGR:    
       EIGENVALUES ARE:
:EIG00001:      -4.8544099   -4.8543986   -4.8543959   -4.8543950   -4.8543900
:EIG00006:      -4.8543864   -4.8543827   -4.8543767   -4.8543740   -4.8543656
:EIG00011:      -4.8543610   -4.8543476   -4.8543436   -4.8543403   -4.8543261
:EIG00016:      -4.8543114   -4.8543087   -4.8543047   -4.8542895   -4.8542832
:EIG00021:      -4.3422810   -4.3422725   -4.3422700   -4.3422657   -4.3422653
:EIG00026:      -4.3422622   -4.3422607   -4.3422528   -4.3421699   -4.3421673
:EIG00031:      -4.3421656   -4.3421564   -4.3420068   -4.3420063   -4.3420005
:EIG00036:      -4.3419935   -4.3419899   -4.3419863   -4.3419806   -4.3419732
:EIG00041:      -4.3419547   -4.3419441   -4.3419352   -4.3419279   -4.3419267
:EIG00046:      -4.3419251   -4.3419245   -4.3419148   -4.3419139   -4.3419107
 
:EIG00051:      -4.3419048   -4.3419006   -4.3416378   -4.3416359   -4.3416296
:EIG00056:      -4.3416226   -4.3415011   -4.3414977   -4.3414897   -4.3414877
:EIG00061:      -4.3414809   -4.3414798   -4.3414768   -4.3414715   -4.3414564
:EIG00066:      -4.3414525   -4.3414429   -4.3414415   -4.3414384   -4.3414361
:EIG00071:      -4.3414302   -4.3414275   -4.3413170   -4.3413136   -4.3413108
:EIG00076:      -4.3413041   -4.3412465   -4.3412406   -4.3412396   -4.3412344
:EIG00081:      -1.3724589   -1.3722901   -1.3721028   -1.3719964   -0.9681859
:EIG00086:      -0.9679596   -0.9679478   -0.9677327   -0.9675815   -0.9664812
:EIG00091:      -0.9483529   -0.9481512   -0.9477731   -0.9476779   -0.9474735
:EIG00096:      -0.9470616   -0.9035116   -0.9033765   -0.9032378   -0.8964152
 
:EIG00101:      -0.8963584   -0.8963023   -0.8962292   -0.8961616   -0.8960577
:EIG00106:      -0.8957097   -0.8956292   -0.8955298   -0.8954142   -0.8953965
:EIG00111:      -0.8950793   -0.8931073   -0.8810942   -0.8699421   -0.8696009
:EIG00116:      -0.8691094   -0.4146903   -0.4122995   -0.4118778   -0.4103210
:EIG00121:      -0.4097379   -0.4093531   -0.4091296   -0.4078100   -0.4077619
:EIG00126:      -0.4076427   -0.4071516   -0.4062205   -0.4053970   -0.3659458
:EIG00131:      -0.3248428   -0.2610707   -0.1488157   -0.1485269   -0.1474326
:EIG00136:      -0.1406650   -0.1402385   -0.1304941   -0.0992834   -0.0806793
:EIG00141:      -0.0777349   -0.0764685   -0.0751108   -0.0680384   -0.0578324
:EIG00146:      -0.0535376   -0.0525056   -0.0488316   -0.0465940   -0.0444501
 
:EIG00151:      -0.0420066   -0.0406625   -0.0399322   -0.0384645   -0.0314044
:EIG00156:      -0.0268113   -0.0266688   -0.0257258   -0.0243222   -0.0231001
:EIG00161:      -0.0218642   -0.0202182   -0.0180978   -0.0179754   -0.0005652
:EIG00166:       0.0572505    0.1063455    0.1617031    0.3378370    0.3404990
:EIG00171:       0.3442627    0.3709782    0.3840736    0.4013470    0.4017547
:EIG00176:       0.4823246    0.4883531    0.4961760    0.4997081    0.5320885
:EIG00181:       0.5342506    0.5367050    0.5454549    0.5484954    0.5501466
:EIG00186:       0.5513611    0.5570960    0.5602483    0.5746667    0.5778176
:EIG00191:       0.5808707    0.5847987    0.6031783    0.6051691    0.6064877
:EIG00196:       0.6150545    0.6172843    0.6196403    0.6228729    0.6275340
 
:EIG00201:       0.6365686    0.6418349    0.6547935    0.6588281    0.6609926
:EIG00206:       0.6738693    0.6770651    0.6901664    0.6964703    0.7022360
:EIG00211:       0.7154827    0.7344562    0.7403667    0.7549324    0.7574654
:EIG00216:       0.7596896    0.7612694    0.7667285    0.7800544    0.7867726
:EIG00221:       0.7874495    0.7909905    0.7943197    0.8360903    0.8563017
:EIG00226:       0.8593456    0.8608974    0.8630171    0.8669285    0.8689146
:EIG00231:       0.8711537    0.8831084    0.8927877    0.8952521    0.9071623
:EIG00236:       0.9284092    0.9380925    0.9537652    0.9583513    0.9610468
:EIG00241:       0.9618185    0.9657247    0.9821402    0.9857434    0.9957618
:EIG00246:       0.9976971    1.0152334    1.0159625    1.0196295    1.0209072
 
:EIG00251:       1.0261944    1.0301115    1.0459268    1.0543699    1.0604404
:EIG00256:       1.0724503    1.0837302    1.0905010    1.0917188    1.0927015
:EIG00261:       1.0939551    1.0988496    1.1005679    1.1028837    1.1085371
:EIG00266:       1.1152733    1.1195904    1.1257909    1.1321359    1.1330654
:EIG00271:       1.1344033    1.1392399    1.1438549    1.1455421    1.1613661
:EIG00276:       1.1642069    1.1689809    1.1705985    1.1743007    1.1765500
:EIG00281:       1.1776763    1.1845529    1.1858671    1.1898240    1.1901922
:EIG00286:       1.1926187    1.1959630    1.2028208    1.2150058    1.2194720
:EIG00291:       1.2214746    1.2254166    1.2279487    1.2326134    1.2388902
:EIG00296:       1.2404793    1.2433804    1.2463271    1.2499999    1.2601527
 
:EIG00301:       1.2679899    1.2685892    1.2776612    1.2852452    1.2872505
:EIG00306:       1.2978287    1.3052556    1.3095683    1.3142153    1.3165052
:EIG00311:       1.3210065    1.3306962    1.3443092    1.3445682    1.3564713
:EIG00316:       1.3569655    1.3678466    1.3768072    1.3820402    1.3840321
:EIG00321:       1.3863924    1.3869878    1.4055306    1.4073753    1.4124623
:EIG00326:       1.4209408    1.4223156    1.4339520    1.4350171    1.4407619
:EIG00331:       1.4477701    1.4483120    1.4521295    1.4534434    1.4598461
:EIG00336:       1.4699565    1.4714722    1.4734198    1.4788224    1.4841400
:EIG00341:       1.4907774    1.4913014    1.4953010    1.5007647    1.5034096
:EIG00346:       1.5062427    1.5141632    1.5163922    1.5185075    1.5241411
 
:EIG00351:       1.5317067    1.5369783    1.5410424    1.5438386    1.5509148
:EIG00356:       1.5622858    1.5681466    1.5716627    1.5801044    1.5819356
:EIG00361:       1.5947194    1.5956364    1.6064138    1.6135715    1.6214463
:EIG00366:       1.6315113    1.6366995    1.6389405    1.6444173    1.6527581
:EIG00371:       1.6547928    1.6561141    1.6665098    1.6717898    1.6762550
:EIG00376:       1.6800931    1.6833705    1.6930067    1.7007893    1.7081208
:EIG00381:       1.7087459    1.7175643    1.7192735    1.7228783    1.7282340
:EIG00386:       1.7313809    1.7392576    1.7424499    1.7440647    1.7486505
:EIG00391:       1.7528077    1.7545544    1.7636509    1.7679829    1.7772206
:EIG00396:       1.7773415    1.7806321    1.7921720    1.7933535    1.7968237
 
:EIG00401:       1.8036698    1.8107489    1.8160925    1.8185575    1.8220598
:EIG00406:       1.8266154    1.8281600    1.8367770    1.8407055    1.8427233
:EIG00411:       1.8460861    1.8499938    1.8544223    1.8640797    1.8716022
:EIG00416:       1.8861722    1.8874367    1.8919974    1.8965766    1.8990017
:EIG00421:       1.9031293    1.9043828    1.9064699    1.9118655    1.9198579
:EIG00426:       1.9206372    1.9327024    1.9371393    1.9430165    1.9440412
:EIG00431:       1.9556558    1.9612249    1.9634174    1.9707120    1.9757941
:EIG00436:       1.9831113    1.9907356    1.9943903
       ********************************************************

:KPT   :      NUMBER OF K-POINTS:  1152
       Insulator, EF-inconsistency corrected
:GAP (global)   :  0.176134 Ry =     2.396 eV (accurate value if proper k-mesh)
         Bandranges (emin - emax) and occupancy:
:BAN00158: 158   -0.036757   -0.025263  2.00000000
:BAN00159: 159   -0.033446   -0.024322  2.00000000
:BAN00160: 160   -0.033446   -0.023100  2.00000000
:BAN00161: 161   -0.029272   -0.021843  2.00000000
:BAN00162: 162   -0.028497   -0.019253  2.00000000
:BAN00163: 163   -0.023582   -0.013803  2.00000000
:BAN00164: 164   -0.023393   -0.013803  2.00000000
:BAN00165: 165   -0.000565    0.064696  2.00000000
:BAN00166: 166    0.012687    0.070705  2.00000000
:BAN00167: 167    0.040959    0.120218  2.00000000
:BAN00168: 168    0.045952    0.161703  2.00000000
:BAN00169: 169    0.337837    0.442772  0.00000000
:BAN00170: 170    0.340499    0.442772  0.00000000
:BAN00171: 171    0.344263    0.444537  0.00000000
:BAN00172: 172    0.364839    0.451289  0.00000000
:BAN00173: 173    0.379610    0.457169  0.00000000
        Energy to separate low and high energystates:   -0.46469


:NOE  : NUMBER OF ELECTRONS          =  336.000

:FER  : F E R M I - ENERGY(TETRAH.M.)=   0.1617031361
:GMA  : POTENTIAL AND CHARGE CUT-OFF  12.00 Ry**.5

:POS001: ATOM   -1 X,Y,Z = 0.50000 0.50000 0.50000  MULT= 4  ZZ= 82.000  Pb        

       LMMAX 28
       LM=   0 0  2 0  2 1 -2 1  2 2 -2 2  4 0  4 1 -4 1  4 2 -4 2  4 3 -4 3  4 4 -4 4  6 0  6 1
        -6 1  6 2 -6 2  6 3 -6 3  6 4 -6 4  6 5 -6 5  6 6 -6 6

:CHA001: TOTAL VALENCE CHARGE INSIDE SPHERE   1 =  11.3104    (RMT=  2.5000 )
:PCS001: PARTIAL CHARGES SPHERE =  1 S,P,D,F,PX,PY,PZ,D-Z2,D-X2Y2,D-XY,D-XZ,D-YZ 
:QTL001: 1.3301 0.2629 9.7026 0.0124 0.0868 0.0874 0.0887 1.9483 1.9366 1.9470 1.9358 1.9350
        Q-s-low E-s-low   Q-p-low E-p-low   Q-d-low E-d-low   Q-f-low E-f-low
:EPL001:  0.0177 -0.9545    0.0087 -0.9464    9.6271 -0.8979    0.0010 -0.9568
        Q-s-hi  E-s-hi    Q-p-hi  E-p-hi    Q-d-hi  E-d-hi    Q-f-hi  E-f-hi 
:EPH001:  1.3124 -0.2171    0.2542 -0.0907    0.0756 -0.0566    0.0114 -0.0583

                      QXX         QXY         QYY         QZZ       UP TO R
:VZZ001:             0.65383     0.65278     0.16068    -0.81451       2.500

:POS002: ATOM   -2 X,Y,Z = 0.48491 0.94655 0.25000  MULT= 4  ZZ= 55.000  Cs        

       LMMAX 28
       LM=   0 0  1 1 -1 1  2 0  2 2 -2 2  3 1 -3 1  3 3 -3 3  4 0  4 2 -4 2  4 4 -4 4  5 1 -5 1
         5 3 -5 3  5 5 -5 5  6 0  6 2 -6 2  6 4 -6 4  6 6 -6 6

:CHA002: TOTAL VALENCE CHARGE INSIDE SPHERE   2 =  16.2947    (RMT=  2.5000 )
:PCS002: PARTIAL CHARGES SPHERE =  2 S,P,D,F,PX,PY,PZ,D-Z2,D-X2Y2,D-XY,D-XZ,D-YZ 
:QTL002: 1.7960 4.487510.0093 0.0018 1.4951 1.4960 1.4964 2.0014 2.0022 2.0011 2.0019 2.0026
        Q-s-low E-s-low   Q-p-low E-p-low   Q-d-low E-d-low   Q-f-low E-f-low
:EPL002:  1.7865 -1.3718    0.0022 -0.9454    9.9946 -4.8543    0.0001 -1.0168
        Q-s-hi  E-s-hi    Q-p-hi  E-p-hi    Q-d-hi  E-d-hi    Q-f-hi  E-f-hi 
:EPH002:  0.0095 -0.0770    4.4853 -0.3968    0.0147 -0.0520    0.0017 -0.0450

                      QXX         QXY         QYY         QZZ       UP TO R
:VZZ002:             0.54747     1.59479    -0.11859    -0.42888       2.500

:POS003: ATOM   -3 X,Y,Z = 0.56000 0.50750 0.25000  MULT= 4  ZZ= 35.000  Br        

       LMMAX 28
       LM=   0 0  1 1 -1 1  2 0  2 2 -2 2  3 1 -3 1  3 3 -3 3  4 0  4 2 -4 2  4 4 -4 4  5 1 -5 1
         5 3 -5 3  5 5 -5 5  6 0  6 2 -6 2  6 4 -6 4  6 6 -6 6

:CHA003: TOTAL VALENCE CHARGE INSIDE SPHERE   3 =  15.9553    (RMT=  2.5000 )
:PCS003: PARTIAL CHARGES SPHERE =  3 S,P,D,F,PX,PY,PZ,D-Z2,D-X2Y2,D-XY,D-XZ,D-YZ 
:QTL003: 1.7970 4.141310.0141 0.0024 1.3989 1.4027 1.3397 2.0109 2.0004 2.0002 2.0017 2.0009
        Q-s-low E-s-low   Q-p-low E-p-low   Q-d-low E-d-low   Q-f-low E-f-low
:EPL003:  1.7662 -0.9479    0.0063 -0.9020   10.0001 -4.3411    0.0006 -0.9117
        Q-s-hi  E-s-hi    Q-p-hi  E-p-hi    Q-d-hi  E-d-hi    Q-f-hi  E-f-hi 
:EPH003:  0.0308 -0.2384    4.1350 -0.0589    0.0140 -0.1100    0.0018 -0.1584

                      QXX         QXY         QYY         QZZ       UP TO R
:VZZ003:            -5.13943    -0.36330    -6.35669    11.49612       2.500

:POS004: ATOM   -4 X,Y,Z = 0.19962 0.70227 0.46752  MULT= 8  ZZ= 35.000  Br        

       LMMAX 49

:CHA004: TOTAL VALENCE CHARGE INSIDE SPHERE   4 =  15.9560    (RMT=  2.5000 )
:PCS004: PARTIAL CHARGES SPHERE =  4 S,P,D,F,PX,PY,PZ,D-Z2,D-X2Y2,D-XY,D-XZ,D-YZ 
:QTL004: 1.7968 4.142710.0137 0.0024 1.3729 1.3699 1.3999 2.0027 2.0019 2.0073 2.0008 2.0009
        Q-s-low E-s-low   Q-p-low E-p-low   Q-d-low E-d-low   Q-f-low E-f-low
:EPL004:  1.7666 -0.9479    0.0061 -0.9008   10.0000 -4.3413    0.0006 -0.9143
        Q-s-hi  E-s-hi    Q-p-hi  E-p-hi    Q-d-hi  E-d-hi    Q-f-hi  E-f-hi 
:EPH004:  0.0301 -0.2387    4.1366 -0.0590    0.0136 -0.1123    0.0018 -0.1531

                      QXX         QXY         QYY         QZZ       UP TO R
:VZZ004:             2.16540    -8.20703     3.11559    -5.28099       2.500

:CHA  : TOTAL VALENCE CHARGE INSIDE UNIT CELL =     336.000000

:SUM  : SUM OF EIGENVALUES =        -800.985353383


        1.ATOM      Pb                   19 CORE STATES
:1S 001: 1S               -6465.856478861 Ry
:2S 001: 2S               -1154.903306790 Ry
:2PP001: 2P*              -1108.893817011 Ry
:2P 001: 2P                -947.935173972 Ry
:3S 001: 3S                -276.693360124 Ry
:3PP001: 3P*               -255.968010997 Ry
:3P 001: 3P                -220.054280836 Ry
:3DD001: 3D*               -186.062537820 Ry
:3D 001: 3D                -178.422247597 Ry
:4S 001: 4S                 -62.128808944 Ry
:4PP001: 4P*                -53.163996678 Ry
:4P 001: 4P                 -44.373404565 Ry
:4DD001: 4D*                -29.792605091 Ry
:4D 001: 4D                 -28.152442018 Ry
:5S 001: 5S                  -9.904885030 Ry
:5PP001: 5P*                 -6.849845520 Ry
:5P 001: 5P                  -5.208607376 Ry
:4FF001: 4F*                 -9.280070916 Ry
:4F 001: 4F                  -8.910355399 Ry

        2.ATOM      Cs                   12 CORE STATES
       CORE-FORCE in mRy/a.u. = |F|      Fx             Fy             Fz
:FCO002:   2.ATOM      8.842542940986     -8.835064566040     -0.363592872713      0.000000000000

:1S 002: 1S               -2628.589836052 Ry
:2S 002: 2S                -411.663315835 Ry
:2PP002: 2P*               -387.226059542 Ry
:2P 002: 2P                -361.334303543 Ry
:3S 002: 3S                 -85.113558932 Ry
:3PP002: 3P*                -74.910137637 Ry
:3P 002: 3P                 -69.948285401 Ry
:3DD002: 3D*                -52.028973622 Ry
:3D 002: 3D                 -50.975649671 Ry
:4S 002: 4S                 -15.579493186 Ry
:4PP002: 4P*                -11.918652724 Ry
:4P 002: 4P                 -10.906723180 Ry

        3.ATOM      Br                    7 CORE STATES
       CORE-FORCE in mRy/a.u. = |F|      Fx             Fy             Fz
:FCO003:   3.ATOM    113.798211866841     46.855090037281    103.704549377974      0.000000000000

:1S 003: 1S                -977.960077086 Ry
:2S 003: 2S                -126.757186875 Ry
:2PP003: 2P*               -114.087264181 Ry
:2P 003: 2P                -110.595877631 Ry
:3S 003: 3S                 -16.930995736 Ry
:3PP003: 3P*                -12.526450390 Ry
:3P 003: 3P                 -12.024239283 Ry

        4.ATOM      Br                    7 CORE STATES
       CORE-FORCE in mRy/a.u. = |F|      Fx             Fy             Fz
:FCO004:   4.ATOM     88.726814992281    -27.631481055139    -54.539348517191    -64.299365601025

:1S 004: 1S                -977.960247445 Ry
:2S 004: 2S                -126.757357083 Ry
:2PP004: 2P*               -114.087434426 Ry
:2P 004: 2P                -110.596047870 Ry
:3S 004: 3S                 -16.931164448 Ry
:3PP004: 3P*                -12.526618974 Ry
:3P 004: 3P                 -12.024407776 Ry
:CINT001 Core Integral Atom   1   67.995039
:CINT002 Core Integral Atom   2   35.999909
:CINT003 Core Integral Atom   3   17.999989
:CINT004 Core Integral Atom   4   17.999989

       DENSITY AT NUCLEUS
        JATOM        VALENCE       SEMI-CORE          CORE           TOTAL
:RTO001:   1     1927.878950        0.000000  9911349.920423  9913277.799373
:RTO002:   2      320.878669        0.000000   438170.878700   438491.757369
:RTO003:   3       73.645526        0.000000    45839.135817    45912.781343
:RTO004:   4       73.629449        0.000000    45839.135906    45912.765355
     
       CHARGES OF NEW CHARGE DENSITY
:NTO   : INTERSTITIAL CHARGE =    34.110598
:NPC   : PW Pseudocharge     =   103.141030
:NTO001: CHARGE SPHERE  1    =    79.305394
:NTO002: CHARGE SPHERE  2    =    52.294591
:NTO003: CHARGE SPHERE  3    =    33.955307
:NTO004: CHARGE SPHERE  4    =    33.955983

:NEC01: NUCLEAR AND ELECTRONIC CHARGE    968.00000   967.97963
     
       CHARGES OF OLD CHARGE DENSITY
:OTO   : INTERSTITIAL CHARGE =    36.640813
:OPC   : PW Pseudocharge     =   131.400716
:OTO001: CHARGE SPHERE  1    =    79.809567
:OTO002: CHARGE SPHERE  2    =    52.317982
:OTO003: CHARGE SPHERE  3    =    33.573161
:OTO004: CHARGE SPHERE  4    =    33.572536

:NEC02: NUCLEAR AND ELECTRONIC CHARGE    968.00000   968.02395
     
       CONVERGENCE TEST
:DTO001: DIFFERENCE IN SPHERE  1 =  0.2619592
:DTO002: DIFFERENCE IN SPHERE  2 =  0.0742551
:DTO003: DIFFERENCE IN SPHERE  3 =  0.1900919
:DTO004: DIFFERENCE IN SPHERE  4 =  0.1907618

:DIS  :  CHARGE DISTANCE       ( 0.2619592 for atom    1 spin 1)      0.1815660
 PW Mixed is         2248
 
******************************************************
* MULTISECANT MIXING VER9 RELEASE 10.4.0              *
* Standard Mode with controls                        *
* Fixed density scale                                *
* Regularization       1.000E-04                     *
* Trust Upper Limit    5.000E+00                     *
* Max Number of Memory Steps    8                    *
******************************************************
 
:PWTMP   3.9481E+03  2.5000E+03  5.2571E+03
:PLANE:  PW TOTAL     10.8628 DISTAN   3.49E+00  3.21E+01 %
:CHARG:  CLM/ATOM   1115.9684 DISTAN   2.17E-01  1.94E-02 %
 
Step History
        DMIX         DMIXT        Red     Pred      Trust     Lambda    MagRel    MagAbs     Beta
  1   3.5000E-02   3.5000E-02 -1.00E+00  1.00E+00 -1.00E+01  1.00E+00  3.50E-02  3.50E-02  1.00E+00
:INFO :  Note, Pratt in use
:TRUST:  Step 3.75E-02  Charge 7.50E-02 (e) CTO  4.43E-01 (e) PW  6.21E-01 (e)
:DIRM :  MEMORY  0/ 8 SCALE   1.000
Performing Pseudo Compensation
Final Pseudo Compensation Rescaling     1.00017E+00
:MIX  :   PRATT  REGULARIZATION:  1.00E-04 GREED: 0.02500                  
     
       CHARGES OF MIXED CHARGE DENSITY
:CTO   : INTERSTITIAL CHARGE =    36.554719
:CPC   : PW Pseudocharge     =   113.535243
:CTO001: CHARGE SPHERE  1    =    79.796963
:CTO002: CHARGE SPHERE  2    =    52.317397
:CTO003: CHARGE SPHERE  3    =    33.582715
:CTO004: CHARGE SPHERE  4    =    33.582123

:NEC03: NUCLEAR AND ELECTRONIC CHARGE    968.00000   968.00000

PW CHANGE     H    K    L      Current       Change    Residue
:PTO001:      0    0    0  2.85501001E-02 -3.394E-03 -5.820E-03
:PTO006:     -1    0   -1 -2.51629480E-03  2.686E-04  3.935E-04
:PTO007:      0    0   -2  3.54026226E-03 -1.918E-03 -3.357E-03
:PTO008:     -1   -1    0  6.73969122E-03 -3.962E-03 -6.792E-03
:PTO009:     -1   -1   -1 -1.09890882E-02  1.548E-03  2.191E-03
:PTO012:      0   -2    0  8.00609005E-03 -3.040E-03 -4.732E-03
:PTO013:     -1   -1   -2  2.58153679E-02 -1.152E-02 -1.846E-02
:PTO014:     -2    0    0  7.95691512E-03 -3.092E-03 -4.793E-03
:PTO015:      0   -2   -1  6.10826479E-03 -1.114E-03 -1.748E-03
:PTO018:     -1   -2    0 -1.09997889E-02  1.244E-03  1.562E-03
:PTO019:     -2   -1    0  1.21011855E-02 -1.400E-03 -1.765E-03
:PTO021:     -1   -2   -1  1.26268646E-02 -1.485E-03 -1.879E-03

:ENE  : ********** TOTAL ENERGY IN Ry =      -292313.14244875

       TOTAL FORCE IN mRy/a.u. = |F|     Fx             Fy             Fz     with/without FOR in case.in2
:FOR001:   1.ATOM          0.000          0.000          0.000          0.000 partial forces
:FOR002:   2.ATOM          4.372          4.372          0.011          0.000 partial forces
:FOR003:   3.ATOM        106.333        -46.191        -95.776          0.000 partial forces
:FOR004:   4.ATOM         85.482         27.949         52.487         61.409 partial forces
       TOTAL FORCE WITH RESPECT TO GLOBAL CARTESIAN COORDINATES:
:FCA001:   1.ATOM                         0.000          0.000          0.000 partial forces
:FCA002:   2.ATOM                         4.372          0.011          0.000 partial forces
:FCA003:   3.ATOM                       -46.191        -95.776          0.000 partial forces
:FCA004:   4.ATOM                        27.949         52.487         61.409 partial forces
       TOTAL FORCE WITH RESPECT TO THE GLOBAL COORDINATE SYSTEM:
:FGL001:   1.ATOM                 0.000000000     0.000000000     0.000000000 partial forces
:FGL002:   2.ATOM                 4.372299202     0.010531475     0.000000000 partial forces
:FGL003:   3.ATOM               -46.190547310   -95.776443374     0.000000000 partial forces
:FGL004:   4.ATOM                27.949474855    52.487409272    61.409085276 partial forces
 Flat Integration
 New Mode for Coulomb Integral
 Consistent 3/8+Simpson combinations
 Extension of core to zero
 LDM version in phi
 Fifth-order quadrature in outwin


            ---------
:ITE002:  2. ITERATION
            ---------

:NATO :    4 INDEPENDENT AND   20 TOTAL ATOMS IN UNITCELL
       SUBSTANCE: blebleble                                                   

       LATTICE                      = P   
:POT  : POTENTIAL OPTION EX_PBE EC_PBE VX_PBE VC_PBE
:LAT  : LATTICE CONSTANTS= 15.19415 15.66734 22.08372    1.571    1.571    1.571
:VOL  : UNIT CELL VOLUME =    5257.07306
       MODE OF CALCULATION IS       = RELA
       NON-SPINPOLARIZED CALCULATION
:IFFT  : FFT-parameters:  120  120  180 Factor: 2.00


   CONVERGENCE PARAMETER FOR PSEUDOCHARGE: NCON=  9
   MAXIMAL VALUE OF RMT(JATOM)*ABSK(NKK) : RK  =29.99804


:VKCOUL :  VK-COUL convergence: 0.235E-08
       ATOMNUMBER=  1 Pb         VCOUL-ZERO =  0.95795E-01
:EFG001:                        EFG         =     0.02831   *10**21  V / m**2
                               V20  TOT/SRF=    -0.01647     0.00190
                               V22  TOT/SRF=     0.00590    -0.00072
                               V22M TOT/SRF=     0.01603    -0.00085
                               V21  TOT/SRF=    -0.00656     0.00318
                               V21M TOT/SRF=    -0.00633    -0.00511

              0.01541    0.01603   -0.00656        0.02831    0.00000    0.00000
              0.01603    0.00361   -0.00633        0.00000   -0.00743    0.00000
             -0.00656   -0.00633   -0.01902        0.00000    0.00000   -0.02088

         MAIN DIRECTIONS OF THE EFG   1.0000 -0.7391  0.0934
                                      0.7092  1.0000  0.1975
                                     -0.2335 -0.1284  1.0000
:ANG001:  ANGLE WITH OLD X-AXIS =        36.7

:ETA001:                         ASYMM. ETA =     0.47530


       ATOMNUMBER=  2 Cs         VCOUL-ZERO = -0.57642E-01
:EFG002:                        EFG         =     0.04608   *10**21  V / m**2
                               V20  TOT/SRF=    -0.00975    -0.00042
                               V22  TOT/SRF=     0.00806    -0.00052
                               V22M TOT/SRF=     0.03964    -0.00110
                               V21  TOT/SRF=     0.00000     0.00000
                               V21M TOT/SRF=     0.00000     0.00000

              0.01369    0.03964    0.00000        0.04608    0.00000    0.00000
              0.03964   -0.00243    0.00000        0.00000   -0.03482    0.00000
              0.00000    0.00000   -0.01126        0.00000    0.00000   -0.01126

         MAIN DIRECTIONS OF THE EFG   1.0000 -0.8171  0.0000
                                      0.8171  1.0000  0.0000
                                      0.0000  0.0000  1.0000
:ANG002:  ANGLE WITH OLD X-AXIS =        39.3

:ETA002:                         ASYMM. ETA =     0.51139


       ATOMNUMBER=  3 Br         VCOUL-ZERO =  0.27407E+00
:EFG003:                        EFG         =     0.31479   *10**21  V / m**2
                               V20  TOT/SRF=     0.27262     0.06293
                               V22  TOT/SRF=     0.01944     0.00570
                               V22M TOT/SRF=    -0.01946    -0.01138
                               V21  TOT/SRF=     0.00000     0.00000
                               V21M TOT/SRF=     0.00000     0.00000

             -0.13795   -0.01946    0.00000       -0.12988    0.00000    0.00000
             -0.01946   -0.17684    0.00000        0.00000   -0.18491    0.00000
              0.00000    0.00000    0.31479        0.00000    0.00000    0.31479

         MAIN DIRECTIONS OF THE EFG   1.0000  0.4145  0.0000
                                     -0.4145  1.0000  0.0000
                                      0.0000  0.0000  1.0000
:ANG003:  ANGLE WITH OLD X-AXIS =        22.5

:ETA003:                         ASYMM. ETA =     0.17479


       ATOMNUMBER=  4 Br         VCOUL-ZERO =  0.27410E+00
:EFG004:                        EFG         =     0.29764   *10**21  V / m**2
                               V20  TOT/SRF=    -0.12276    -0.02716
                               V22  TOT/SRF=    -0.01519    -0.00448
                               V22M TOT/SRF=    -0.22509    -0.05178
                               V21  TOT/SRF=    -0.02584    -0.00411
                               V21M TOT/SRF=     0.00676     0.00786

              0.05568   -0.22509   -0.02584        0.29764    0.00000    0.00000
             -0.22509    0.08606    0.00676        0.00000   -0.16423    0.00000
             -0.02584    0.00676   -0.14175        0.00000    0.00000   -0.13340

         MAIN DIRECTIONS OF THE EFG  -0.9378  1.0000 -0.4525
                                      1.0000  0.8754 -0.4949
                                      0.0705  0.8856  1.0000
:ANG004:  ANGLE WITH OLD X-AXIS =       130.5

:ETA004:                         ASYMM. ETA =     0.10359


     HELLMANN-FEYNMAN-FORCE IN mRy/a.u. = |F|  Fx       Fy             Fz
:FHF001:   1.ATOM      0.000000000000      0.000000000000      0.000000000000      0.000000000000

     HELLMANN-FEYNMAN-FORCE IN mRy/a.u. = |F|  Fx       Fy             Fz
:FHF002:   2.ATOM     12.761892485013     12.670719057142      1.522753549989      0.000000000000

     HELLMANN-FEYNMAN-FORCE IN mRy/a.u. = |F|  Fx       Fy             Fz
:FHF003:   3.ATOM    205.867326583032    -81.123714910669   -189.209669503271      0.000000000000

     HELLMANN-FEYNMAN-FORCE IN mRy/a.u. = |F|  Fx       Fy             Fz
:FHF004:   4.ATOM    153.700922667872     45.218104203202     94.386556558865    112.563202789294

:FIT001: LUSE= 13 SIGMA OF V-XC FIT FOR ATOM  1  0.7699685E-03
:FIT001: LUSE= 13 SIGMA OF V-XC FIT FOR ATOM  1  0.7699685E-03
:FIT002: LUSE= 13 SIGMA OF V-XC FIT FOR ATOM  2  0.1706833E-04
:FIT002: LUSE= 13 SIGMA OF V-XC FIT FOR ATOM  2  0.1706833E-04
:FIT003: LUSE= 13 SIGMA OF V-XC FIT FOR ATOM  3  0.7195895E-03
:FIT003: LUSE= 13 SIGMA OF V-XC FIT FOR ATOM  3  0.7195895E-03
:FIT004: LUSE= 13 SIGMA OF V-XC FIT FOR ATOM  4  0.6397586E-03
:FIT004: LUSE= 13 SIGMA OF V-XC FIT FOR ATOM  4  0.6397586E-03
:DEN  : DENSITY INTEGRAL  =       -114052.97267509   (Ry)
       ELS_POTENTIAL_AT Z=0 and Z=0.5:  -0.54399  -0.54399
       ELS_POTENTIAL_AT Y=0 and Y=0.5:  -0.45460  -0.45460
:VZERO:v0,v0c,v0x  -1.26511  -0.54399  -0.72112 v5,v5c,v5x  -1.26511  -0.54399  -0.72112
:VZERY:v0,v0c,v0x  -1.09370  -0.45460  -0.63911 v5,v5c,v5x  -1.09370  -0.45460  -0.63911
:VZERX:v0,v0c,v0x  -1.08666  -0.45418  -0.63248 v5,v5c,v5x  -1.08666  -0.45418  -0.63248
:LMAX-WF:   10   Non-Spherical LMAX:   4

          ATOMIC SPHERE DEPENDENT PARAMETERS FOR ATOM  Pb        
:e__0001: OVERALL ENERGY PARAMETER IS    0.1000
          OVERALL BASIS SET ON ATOM IS LAPW
:E2_0001: E( 2)=    0.5000
             APW+lo
:E2_0001: E( 2)=   -0.9530   E(BOTTOM)=   -1.190   E(TOP)=   -0.716  2  3   124
             LOCAL ORBITAL
:E0_0001: E( 0)=    0.1000
             APW+lo
:E1_0001: E( 1)=    0.1000
             APW+lo

          ATOMIC SPHERE DEPENDENT PARAMETERS FOR ATOM  Cs        
:e__0002: OVERALL ENERGY PARAMETER IS    0.1000
          OVERALL BASIS SET ON ATOM IS LAPW
:E2_0002: E( 2)=    0.1000
             APW+lo
:E2_0002: E( 2)=   -4.8658   E(BOTTOM)=   -4.877   E(TOP)=   -4.854  1  2   116
             LOCAL ORBITAL
:E0_0002: E( 0)=    0.5000
             APW+lo
:E0_0002: E( 0)=   -1.3744   E(BOTTOM)=   -2.057   E(TOP)=   -0.692  4  5   169
             LOCAL ORBITAL
:E1_0002: E( 1)=    0.5000
             APW+lo
:E1_0002: E( 1)=   -0.2016   E(BOTTOM)=   -1.174   E(TOP)=    0.771  3  4   198
             LOCAL ORBITAL

          ATOMIC SPHERE DEPENDENT PARAMETERS FOR ATOM  Br        
:e__0003: OVERALL ENERGY PARAMETER IS    0.1000
          OVERALL BASIS SET ON ATOM IS LAPW
:E2_0003: E( 2)=    0.1000
             APW+lo
:E2_0003: E( 2)=   -4.3446   E(BOTTOM)=   -4.348   E(TOP)=   -4.341  1  1   118
             LOCAL ORBITAL
:E0_0003: E( 0)=    0.5000
             APW+lo
:E0_0003: E( 0)=   -0.9512   E(BOTTOM)=   -1.517   E(TOP)=   -0.386  3  4   161
             LOCAL ORBITAL
:E1_0003: E( 1)=    0.1000
             APW+lo

          ATOMIC SPHERE DEPENDENT PARAMETERS FOR ATOM  Br        
:e__0004: OVERALL ENERGY PARAMETER IS    0.1000
          OVERALL BASIS SET ON ATOM IS LAPW
:E2_0004: E( 2)=    0.1000
             APW+lo
:E2_0004: E( 2)=   -4.3446   E(BOTTOM)=   -4.348   E(TOP)=   -4.341  1  1   124
             LOCAL ORBITAL
:E0_0004: E( 0)=    0.5000
             APW+lo
:E0_0004: E( 0)=   -0.9513   E(BOTTOM)=   -1.517   E(TOP)=   -0.386  3  4   156
             LOCAL ORBITAL
:E1_0004: E( 1)=    0.1000
             APW+lo

       K=   0.02083   0.02174   0.03125            1
:RKM  : MATRIX SIZE  2237LOs: 308  RKM= 7.00  WEIGHT= 8.00  PGR:    
       EIGENVALUES ARE:
:EIG00001:      -4.8629821   -4.8629651   -4.8629591   -4.8629577   -4.8629550
:EIG00006:      -4.8629525   -4.8629469   -4.8629450   -4.8629410   -4.8629380
:EIG00011:      -4.8629333   -4.8629237   -4.8629183   -4.8629138   -4.8629028
:EIG00016:      -4.8628893   -4.8628839   -4.8628736   -4.8628576   -4.8628532
:EIG00021:      -4.3444362   -4.3444272   -4.3444263   -4.3444248   -4.3444237
:EIG00026:      -4.3444216   -4.3444170   -4.3444158   -4.3444146   -4.3444097
:EIG00031:      -4.3444091   -4.3444046   -4.3441515   -4.3441352   -4.3441319
:EIG00036:      -4.3441302   -4.3441100   -4.3441056   -4.3441011   -4.3440957
:EIG00041:      -4.3440924   -4.3440887   -4.3440837   -4.3440750   -4.3440517
:EIG00046:      -4.3440461   -4.3440343   -4.3440249   -4.3440190   -4.3440161
 
:EIG00051:      -4.3440113   -4.3440065   -4.3438529   -4.3438520   -4.3438460
:EIG00056:      -4.3438379   -4.3434778   -4.3434757   -4.3434666   -4.3434640
:EIG00061:      -4.3434574   -4.3434562   -4.3434533   -4.3434488   -4.3434345
:EIG00066:      -4.3434280   -4.3434190   -4.3434172   -4.3434151   -4.3434126
:EIG00071:      -4.3434070   -4.3434030   -4.3433883   -4.3433847   -4.3433820
:EIG00076:      -4.3433754   -4.3433246   -4.3433191   -4.3433176   -4.3433126
:EIG00081:      -1.3805944   -1.3804285   -1.3802428   -1.3801374   -0.9761944
:EIG00086:      -0.9759283   -0.9758684   -0.9748528   -0.9737483   -0.9710436
:EIG00091:      -0.9525418   -0.9524465   -0.9520842   -0.9518630   -0.9516582
:EIG00096:      -0.9512339   -0.9196356   -0.9194972   -0.9193460   -0.9127014
 
:EIG00101:      -0.9126465   -0.9125864   -0.9125064   -0.9124484   -0.9123442
:EIG00106:      -0.9119928   -0.9119177   -0.9118296   -0.9117085   -0.9116930
:EIG00111:      -0.9113700   -0.9076640   -0.8943939   -0.8822459   -0.8819350
:EIG00116:      -0.8814579   -0.4225651   -0.4211232   -0.4201666   -0.4195573
:EIG00121:      -0.4180503   -0.4175868   -0.4173167   -0.4157889   -0.4156977
:EIG00126:      -0.4155106   -0.4151426   -0.4142664   -0.4132863   -0.3777042
:EIG00131:      -0.3369676   -0.2742354   -0.1555155   -0.1552688   -0.1541164
:EIG00136:      -0.1473243   -0.1468977   -0.1374023   -0.1042719   -0.0857425
:EIG00141:      -0.0827303   -0.0815134   -0.0801785   -0.0730577   -0.0628640
:EIG00146:      -0.0582176   -0.0572293   -0.0535195   -0.0514429   -0.0492709
 
:EIG00151:      -0.0466474   -0.0452927   -0.0447125   -0.0432692   -0.0361698
:EIG00156:      -0.0322657   -0.0321113   -0.0313666   -0.0290715   -0.0278512
:EIG00161:      -0.0265766   -0.0246882   -0.0226735   -0.0224208   -0.0054757
:EIG00166:       0.0498648    0.0984679    0.1533318    0.3273921    0.3299579
:EIG00171:       0.3339339    0.3604010    0.3734139    0.3910229    0.3946989
:EIG00176:       0.4756210    0.4817950    0.4890432    0.4928246    0.5248300
:EIG00181:       0.5254022    0.5294272    0.5371458    0.5412048    0.5427138
:EIG00186:       0.5429619    0.5499074    0.5535184    0.5663739    0.5701307
:EIG00191:       0.5740835    0.5781031    0.5949455    0.5959752    0.5988529
:EIG00196:       0.6058073    0.6097571    0.6123885    0.6135510    0.6206829
 
:EIG00201:       0.6291873    0.6335510    0.6473113    0.6514411    0.6537189
:EIG00206:       0.6669103    0.6697409    0.6833564    0.6889776    0.6955165
:EIG00211:       0.7086035    0.7273694    0.7334062    0.7484090    0.7508506
:EIG00216:       0.7524992    0.7546028    0.7599324    0.7735001    0.7802669
:EIG00221:       0.7807511    0.7846452    0.7873871    0.8291117    0.8495697
:EIG00226:       0.8527188    0.8540748    0.8563567    0.8606888    0.8613899
:EIG00231:       0.8642932    0.8764264    0.8860202    0.8878161    0.9007632
:EIG00236:       0.9219918    0.9313488    0.9469647    0.9517592    0.9544640
:EIG00241:       0.9553616    0.9592234    0.9762623    0.9785077    0.9889586
:EIG00246:       0.9906283    1.0083319    1.0096806    1.0131700    1.0149858
 
:EIG00251:       1.0193548    1.0234484    1.0397926    1.0480724    1.0543156
:EIG00256:       1.0660100    1.0784655    1.0847351    1.0858977    1.0880717
:EIG00261:       1.0889619    1.0939130    1.0959065    1.0982684    1.1043734
:EIG00266:       1.1106764    1.1139585    1.1207698    1.1271263    1.1274896
:EIG00271:       1.1293956    1.1345987    1.1393668    1.1411189    1.1556390
:EIG00276:       1.1593297    1.1641557    1.1656606    1.1696825    1.1711703
:EIG00281:       1.1728215    1.1791000    1.1811519    1.1842240    1.1859857
:EIG00286:       1.1875939    1.1911015    1.1989442    1.2125580    1.2170447
:EIG00291:       1.2173777    1.2213838    1.2242002    1.2289568    1.2354689
:EIG00296:       1.2358332    1.2409011    1.2437551    1.2481502    1.2541897
 
:EIG00301:       1.2640601    1.2644547    1.2740415    1.2808306    1.2827072
:EIG00306:       1.2954307    1.3019306    1.3053261    1.3114641    1.3122430
:EIG00311:       1.3158828    1.3343902    1.3390467    1.3447068    1.3521607
:EIG00316:       1.3572419    1.3647371    1.3758295    1.3788657    1.3820084
:EIG00321:       1.3849129    1.3897730    1.4040820    1.4068919    1.4137720
:EIG00326:       1.4265103    1.4288208    1.4347824    1.4362738    1.4384352
:EIG00331:       1.4452568    1.4483434    1.4496850    1.4521714    1.4607221
:EIG00336:       1.4662730    1.4709258    1.4732620    1.4805093    1.4830829
:EIG00341:       1.4923163    1.4945341    1.4970747    1.5022484    1.5045670
:EIG00346:       1.5100982    1.5149208    1.5174314    1.5183723    1.5233848
 
:EIG00351:       1.5360056    1.5385605    1.5423643    1.5437969    1.5478064
:EIG00356:       1.5625292    1.5636530    1.5702831    1.5772185    1.5802410
:EIG00361:       1.5897421    1.5943574    1.6055946    1.6113065    1.6258018
:EIG00366:       1.6288547    1.6360960    1.6378698    1.6476389    1.6508371
:EIG00371:       1.6528023    1.6559294    1.6631973    1.6707222    1.6757398
:EIG00376:       1.6785477    1.6848203    1.6872289    1.6960962    1.7054699
:EIG00381:       1.7079565    1.7135724    1.7178127    1.7231327    1.7247087
:EIG00386:       1.7296144    1.7361249    1.7386837    1.7398245    1.7439842
:EIG00391:       1.7500830    1.7535400    1.7672038    1.7676788    1.7754390
:EIG00396:       1.7796832    1.7811372    1.7888539    1.7919880    1.7971350
 
       ********************************************************

:KPT   :      NUMBER OF K-POINTS:  1152
       Insulator, EF-inconsistency corrected
:GAP (global)   :  0.174060 Ry =     2.368 eV (accurate value if proper k-mesh)
         Bandranges (emin - emax) and occupancy:
:BAN00158: 158   -0.041447   -0.029950  2.00000000
:BAN00159: 159   -0.038256   -0.029072  2.00000000
:BAN00160: 160   -0.038256   -0.027851  2.00000000
:BAN00161: 161   -0.034367   -0.026562  2.00000000
:BAN00162: 162   -0.033679   -0.023736  2.00000000
:BAN00163: 163   -0.028300   -0.018335  2.00000000
:BAN00164: 164   -0.028154   -0.018335  2.00000000
:BAN00165: 165   -0.005476    0.057039  2.00000000
:BAN00166: 166    0.006463    0.063010  2.00000000
:BAN00167: 167    0.032988    0.112020  2.00000000
:BAN00168: 168    0.037843    0.153332  2.00000000
:BAN00169: 169    0.327392    0.433984  0.00000000
:BAN00170: 170    0.329958    0.433984  0.00000000
:BAN00171: 171    0.333934    0.435845  0.00000000
:BAN00172: 172    0.354408    0.442520  0.00000000
:BAN00173: 173    0.368974    0.447536  0.00000000
        Energy to separate low and high energystates:   -0.47257


:NOE  : NUMBER OF ELECTRONS          =  336.000

:FER  : F E R M I - ENERGY(TETRAH.M.)=   0.1533318416
:GMA  : POTENTIAL AND CHARGE CUT-OFF  12.00 Ry**.5

:POS001: ATOM   -1 X,Y,Z = 0.50000 0.50000 0.50000  MULT= 4  ZZ= 82.000  Pb        

       LMMAX 28
       LM=   0 0  2 0  2 1 -2 1  2 2 -2 2  4 0  4 1 -4 1  4 2 -4 2  4 3 -4 3  4 4 -4 4  6 0  6 1
        -6 1  6 2 -6 2  6 3 -6 3  6 4 -6 4  6 5 -6 5  6 6 -6 6

:CHA001: TOTAL VALENCE CHARGE INSIDE SPHERE   1 =  11.3206    (RMT=  2.5000 )
:PCS001: PARTIAL CHARGES SPHERE =  1 S,P,D,F,PX,PY,PZ,D-Z2,D-X2Y2,D-XY,D-XZ,D-YZ 
:QTL001: 1.3321 0.2694 9.7043 0.0125 0.0890 0.0896 0.0908 1.9487 1.9369 1.9473 1.9361 1.9353
        Q-s-low E-s-low   Q-p-low E-p-low   Q-d-low E-d-low   Q-f-low E-f-low
:EPL001:  0.0183 -0.9591    0.0089 -0.9507    9.6292 -0.9141    0.0010 -0.9607
        Q-s-hi  E-s-hi    Q-p-hi  E-p-hi    Q-d-hi  E-d-hi    Q-f-hi  E-f-hi 
:EPH001:  1.3137 -0.2311    0.2606 -0.0974    0.0750 -0.0621    0.0115 -0.0638

                      QXX         QXY         QYY         QZZ       UP TO R
:VZZ001:             0.65305     0.66617     0.14476    -0.79781       2.500

:POS002: ATOM   -2 X,Y,Z = 0.48491 0.94655 0.25000  MULT= 4  ZZ= 55.000  Cs        

       LMMAX 28
       LM=   0 0  1 1 -1 1  2 0  2 2 -2 2  3 1 -3 1  3 3 -3 3  4 0  4 2 -4 2  4 4 -4 4  5 1 -5 1
         5 3 -5 3  5 5 -5 5  6 0  6 2 -6 2  6 4 -6 4  6 6 -6 6

:CHA002: TOTAL VALENCE CHARGE INSIDE SPHERE   2 =  16.2966    (RMT=  2.5000 )
:PCS002: PARTIAL CHARGES SPHERE =  2 S,P,D,F,PX,PY,PZ,D-Z2,D-X2Y2,D-XY,D-XZ,D-YZ 
:QTL002: 1.7962 4.489010.0095 0.0018 1.4956 1.4965 1.4969 2.0014 2.0023 2.0011 2.0020 2.0027
        Q-s-low E-s-low   Q-p-low E-p-low   Q-d-low E-d-low   Q-f-low E-f-low
:EPL002:  1.7866 -1.3800    0.0022 -0.9500    9.9946 -4.8629    0.0001 -1.0264
        Q-s-hi  E-s-hi    Q-p-hi  E-p-hi    Q-d-hi  E-d-hi    Q-f-hi  E-f-hi 
:EPH002:  0.0095 -0.0819    4.4868 -0.4047    0.0149 -0.0568    0.0017 -0.0498

                      QXX         QXY         QYY         QZZ       UP TO R
:VZZ002:             0.55771     1.61975    -0.11626    -0.44145       2.500

:POS003: ATOM   -3 X,Y,Z = 0.56000 0.50750 0.25000  MULT= 4  ZZ= 35.000  Br        

       LMMAX 28
       LM=   0 0  1 1 -1 1  2 0  2 2 -2 2  3 1 -3 1  3 3 -3 3  4 0  4 2 -4 2  4 4 -4 4  5 1 -5 1
         5 3 -5 3  5 5 -5 5  6 0  6 2 -6 2  6 4 -6 4  6 6 -6 6

:CHA003: TOTAL VALENCE CHARGE INSIDE SPHERE   3 =  15.9441    (RMT=  2.5000 )
:PCS003: PARTIAL CHARGES SPHERE =  3 S,P,D,F,PX,PY,PZ,D-Z2,D-X2Y2,D-XY,D-XZ,D-YZ 
:QTL003: 1.7964 4.130610.0140 0.0024 1.3961 1.4001 1.3343 2.0109 2.0004 2.0002 2.0017 2.0010
        Q-s-low E-s-low   Q-p-low E-p-low   Q-d-low E-d-low   Q-f-low E-f-low
:EPL003:  1.7651 -0.9522    0.0061 -0.9174   10.0001 -4.3433    0.0006 -0.9275
        Q-s-hi  E-s-hi    Q-p-hi  E-p-hi    Q-d-hi  E-d-hi    Q-f-hi  E-f-hi 
:EPH003:  0.0314 -0.2503    4.1245 -0.0641    0.0140 -0.1199    0.0018 -0.1691

                      QXX         QXY         QYY         QZZ       UP TO R
:VZZ003:            -5.38754    -0.35093    -6.62683    12.01437       2.500

:POS004: ATOM   -4 X,Y,Z = 0.19962 0.70227 0.46752  MULT= 8  ZZ= 35.000  Br        

       LMMAX 49

:CHA004: TOTAL VALENCE CHARGE INSIDE SPHERE   4 =  15.9447    (RMT=  2.5000 )
:PCS004: PARTIAL CHARGES SPHERE =  4 S,P,D,F,PX,PY,PZ,D-Z2,D-X2Y2,D-XY,D-XZ,D-YZ 
:QTL004: 1.7962 4.132010.0136 0.0024 1.3690 1.3658 1.3972 2.0027 2.0019 2.0073 2.0008 2.0009
        Q-s-low E-s-low   Q-p-low E-p-low   Q-d-low E-d-low   Q-f-low E-f-low
:EPL004:  1.7656 -0.9521    0.0059 -0.9164   10.0000 -4.3433    0.0006 -0.9301
        Q-s-hi  E-s-hi    Q-p-hi  E-p-hi    Q-d-hi  E-d-hi    Q-f-hi  E-f-hi 
:EPH004:  0.0307 -0.2507    4.1261 -0.0641    0.0136 -0.1223    0.0018 -0.1637

                      QXX         QXY         QYY         QZZ       UP TO R
:VZZ004:             2.28101    -8.57892     3.25799    -5.53900       2.500

:CHA  : TOTAL VALENCE CHARGE INSIDE UNIT CELL =     336.000000

:SUM  : SUM OF EIGENVALUES =        -803.078250714


        1.ATOM      Pb                   19 CORE STATES
:1S 001: 1S               -6465.876382493 Ry
:2S 001: 2S               -1154.922730279 Ry
:2PP001: 2P*              -1108.913342782 Ry
:2P 001: 2P                -947.954623806 Ry
:3S 001: 3S                -276.712200732 Ry
:3PP001: 3P*               -255.986894494 Ry
:3P 001: 3P                -220.073099063 Ry
:3DD001: 3D*               -186.081443268 Ry
:3D 001: 3D                -178.441130759 Ry
:4S 001: 4S                 -62.147037161 Ry
:4PP001: 4P*                -53.182224561 Ry
:4P 001: 4P                 -44.391551427 Ry
:4DD001: 4D*                -29.810740494 Ry
:4D 001: 4D                 -28.170551006 Ry
:5S 001: 5S                  -9.922080540 Ry
:5PP001: 5P*                 -6.866922276 Ry
:5P 001: 5P                  -5.225492046 Ry
:4FF001: 4F*                 -9.298132350 Ry
:4F 001: 4F                  -8.928402145 Ry

        2.ATOM      Cs                   12 CORE STATES
       CORE-FORCE in mRy/a.u. = |F|      Fx             Fy             Fz
:FCO002:   2.ATOM      8.564442714785     -8.493521511600     -1.099896061829      0.000000000000

:1S 002: 1S               -2628.599776007 Ry
:2S 002: 2S                -411.672872430 Ry
:2PP002: 2P*               -387.235690908 Ry
:2P 002: 2P                -361.343910032 Ry
:3S 002: 3S                 -85.122613379 Ry
:3PP002: 3P*                -74.919214119 Ry
:3P 002: 3P                 -69.957340967 Ry
:3DD002: 3D*                -52.038081430 Ry
:3D 002: 3D                 -50.984749747 Ry
:4S 002: 4S                 -15.588141559 Ry
:4PP002: 4P*                -11.927287185 Ry
:4P 002: 4P                 -10.915340562 Ry

        3.ATOM      Br                    7 CORE STATES
       CORE-FORCE in mRy/a.u. = |F|      Fx             Fy             Fz
:FCO003:   3.ATOM    106.338062139183     40.470011695601     98.335962968157      0.000000000000

:1S 003: 1S                -977.961572137 Ry
:2S 003: 2S                -126.758938659 Ry
:2PP003: 2P*               -114.088981889 Ry
:2P 003: 2P                -110.597600516 Ry
:3S 003: 3S                 -16.933098946 Ry
:3PP003: 3P*                -12.528560451 Ry
:3P 003: 3P                 -12.026361002 Ry

        4.ATOM      Br                    7 CORE STATES
       CORE-FORCE in mRy/a.u. = |F|      Fx             Fy             Fz
:FCO004:   4.ATOM     77.822960062418    -22.088626035934    -47.791380278407    -57.310467488985

:1S 004: 1S                -977.961632461 Ry
:2S 004: 2S                -126.759000443 Ry
:2PP004: 2P*               -114.089043455 Ry
:2P 004: 2P                -110.597662114 Ry
:3S 004: 3S                 -16.933161491 Ry
:3PP004: 3P*                -12.528622890 Ry
:3P 004: 3P                 -12.026423408 Ry
:CINT001 Core Integral Atom   1   67.995052
:CINT002 Core Integral Atom   2   35.999909
:CINT003 Core Integral Atom   3   17.999989
:CINT004 Core Integral Atom   4   17.999989

       DENSITY AT NUCLEUS
        JATOM        VALENCE       SEMI-CORE          CORE           TOTAL
:RTO001:   1     1947.811017        0.000000  9911352.888517  9913300.699533
:RTO002:   2      320.955142        0.000000   438170.993758   438491.948900
:RTO003:   3       73.572104        0.000000    45839.118218    45912.690321
:RTO004:   4       73.557905        0.000000    45839.118205    45912.676110
     
       CHARGES OF NEW CHARGE DENSITY
:NTO   : INTERSTITIAL CHARGE =    34.197287
:NPC   : PW Pseudocharge     =   103.262389
:NTO001: CHARGE SPHERE  1    =    79.315621
:NTO002: CHARGE SPHERE  2    =    52.296475
:NTO003: CHARGE SPHERE  3    =    33.944048
:NTO004: CHARGE SPHERE  4    =    33.944726

:NEC01: NUCLEAR AND ELECTRONIC CHARGE    968.00000   967.97968
     
       CHARGES OF OLD CHARGE DENSITY
:OTO   : INTERSTITIAL CHARGE =    36.554719
:OPC   : PW Pseudocharge     =   113.535243
:OTO001: CHARGE SPHERE  1    =    79.796963
:OTO002: CHARGE SPHERE  2    =    52.317397
:OTO003: CHARGE SPHERE  3    =    33.582715
:OTO004: CHARGE SPHERE  4    =    33.582123

:NEC02: NUCLEAR AND ELECTRONIC CHARGE    968.00000   968.00000
     
       CONVERGENCE TEST
:DTO001: DIFFERENCE IN SPHERE  1 =  0.2490737
:DTO002: DIFFERENCE IN SPHERE  2 =  0.0705887
:DTO003: DIFFERENCE IN SPHERE  3 =  0.1823995
:DTO004: DIFFERENCE IN SPHERE  4 =  0.1830899

:DIS  :  CHARGE DISTANCE       ( 0.2490737 for atom    1 spin 1)      0.1736483
 PW Mixed is         2248
 
******************************************************
* MULTISECANT MIXING VER9 RELEASE 10.4.0              *
* Slow Mode, cautious                                *
* Fixed density scale                                *
* Regularization       1.000E-04                     *
* Step Trust Radius    0.75000                       *
* Trust Upper Limit    2.000E+00                     *
* Max Number of Memory Steps   12                    *
******************************************************
 
:PWTMP   3.9481E+03  2.5000E+03  5.2571E+03
:PLANE:  PW TOTAL      8.9286 DISTAN   1.03E+00  1.16E+01 %
:CHARG:  CLM/ATOM   1115.9674 DISTAN   2.07E-01  1.86E-02 %
 
Step History
        DMIX         DMIXT        Red     Pred      Trust     Lambda    MagRel    MagAbs     Beta
  1   3.5000E-02   3.5000E-02 -1.00E+00  1.00E+00 -1.00E+01  1.00E+00  3.50E-02  3.50E-02  1.00E+00
  2   2.5000E-02   2.5000E-02 -1.00E+00  1.00E+00 -1.00E+01  1.00E+00  2.50E-02  8.99E-02  1.00E+00
:JACOBIANS    4.978E-01   6.952E-05
  
:TRUST:  Step 4.30E-02  Charge 7.50E-02 (e) CTO  4.43E-01 (e) PW  6.21E-01 (e)
:DIRM :  MEMORY  1/12 SCALE   1.000
:MIX  :   PRATT  REGULARIZATION:  1.00E-04 GREED: 0.04301  Expand 1.72  0.0430                
     
       CHARGES OF MIXED CHARGE DENSITY
:CTO   : INTERSTITIAL CHARGE =    36.538145
:CPC   : PW Pseudocharge     =   108.793599
:CTO001: CHARGE SPHERE  1    =    79.793602
:CTO002: CHARGE SPHERE  2    =    52.317241
:CTO003: CHARGE SPHERE  3    =    33.585263
:CTO004: CHARGE SPHERE  4    =    33.584679

:NEC03: NUCLEAR AND ELECTRONIC CHARGE    968.00000   968.00000

PW CHANGE     H    K    L      Current       Change    Residue
:PTO001:      0    0    0  2.76449922E-02 -9.051E-04 -2.387E-03
:PTO006:     -1    0   -1 -2.44465864E-03  7.164E-05  1.244E-04
:PTO007:      0    0   -2  3.02884490E-03 -5.114E-04 -1.410E-03
:PTO008:     -1   -1    0  5.68295094E-03 -1.057E-03 -2.772E-03
:PTO009:     -1   -1   -1 -1.05762102E-02  4.129E-04  6.351E-04
:PTO012:      0   -2    0  7.19547475E-03 -8.106E-04 -1.672E-03
:PTO013:     -1   -1   -2  2.27418323E-02 -3.074E-03 -6.846E-03
:PTO014:     -2    0    0  7.13221692E-03 -8.247E-04 -1.680E-03
:PTO015:      0   -2   -1  5.81107242E-03 -2.972E-04 -6.259E-04
:PTO018:     -1   -2    0 -1.06679164E-02  3.319E-04  3.155E-04
:PTO019:     -2   -1    0  1.17278617E-02 -3.733E-04 -3.629E-04
:PTO021:     -1   -2   -1  1.22307747E-02 -3.961E-04 -3.910E-04

:ENE  : ********** TOTAL ENERGY IN Ry =      -292313.12529338

       TOTAL FORCE IN mRy/a.u. = |F|     Fx             Fy             Fz     with/without FOR in case.in2
:FOR001:   1.ATOM          0.000          0.000          0.000          0.000 partial forces
:FOR002:   2.ATOM          4.199          4.177          0.423          0.000 partial forces
:FOR003:   3.ATOM         99.553        -40.654        -90.874          0.000 partial forces
:FOR004:   4.ATOM         75.888         23.129         46.595         55.253 partial forces
       TOTAL FORCE WITH RESPECT TO GLOBAL CARTESIAN COORDINATES:
:FCA001:   1.ATOM                         0.000          0.000          0.000 partial forces
:FCA002:   2.ATOM                         4.177          0.423          0.000 partial forces
:FCA003:   3.ATOM                       -40.654        -90.874          0.000 partial forces
:FCA004:   4.ATOM                        23.129         46.595         55.253 partial forces
       TOTAL FORCE WITH RESPECT TO THE GLOBAL COORDINATE SYSTEM:
:FGL001:   1.ATOM                 0.000000000     0.000000000     0.000000000 partial forces
:FGL002:   2.ATOM                 4.177197546     0.422857488     0.000000000 partial forces
:FGL003:   3.ATOM               -40.653703215   -90.873706535     0.000000000 partial forces
:FGL004:   4.ATOM                23.129478167    46.595176280    55.252735300 partial forces
 Flat Integration
 New Mode for Coulomb Integral
 Consistent 3/8+Simpson combinations
 Extension of core to zero
 LDM version in phi
 Fifth-order quadrature in outwin


            ---------
:ITE003:  3. ITERATION
            ---------

:NATO :    4 INDEPENDENT AND   20 TOTAL ATOMS IN UNITCELL
       SUBSTANCE: blebleble                                                   

       LATTICE                      = P   
:POT  : POTENTIAL OPTION EX_PBE EC_PBE VX_PBE VC_PBE
:LAT  : LATTICE CONSTANTS= 15.19415 15.66734 22.08372    1.571    1.571    1.571
:VOL  : UNIT CELL VOLUME =    5257.07306
       MODE OF CALCULATION IS       = RELA
       NON-SPINPOLARIZED CALCULATION
:IFFT  : FFT-parameters:  120  120  180 Factor: 2.00


   CONVERGENCE PARAMETER FOR PSEUDOCHARGE: NCON=  9
   MAXIMAL VALUE OF RMT(JATOM)*ABSK(NKK) : RK  =29.99804


:VKCOUL :  VK-COUL convergence: 0.225E-08
       ATOMNUMBER=  1 Pb         VCOUL-ZERO =  0.92297E-01
:EFG001:                        EFG         =     0.03604   *10**21  V / m**2
                               V20  TOT/SRF=    -0.02116     0.00188
                               V22  TOT/SRF=     0.00754    -0.00071
                               V22M TOT/SRF=     0.02039    -0.00082
                               V21  TOT/SRF=    -0.00895     0.00315
                               V21M TOT/SRF=    -0.00676    -0.00510

              0.01976    0.02039   -0.00895        0.03604    0.00000    0.00000
              0.02039    0.00468   -0.00676        0.00000   -0.00951    0.00000
             -0.00895   -0.00676   -0.02443        0.00000    0.00000   -0.02652

         MAIN DIRECTIONS OF THE EFG   1.0000 -0.7057  0.1375
                                      0.6990  1.0000  0.1269
                                     -0.2262 -0.0298  1.0000
:ANG001:  ANGLE WITH OLD X-AXIS =        35.7

:ETA001:                         ASYMM. ETA =     0.47202


       ATOMNUMBER=  2 Cs         VCOUL-ZERO = -0.59736E-01
:EFG002:                        EFG         =     0.05845   *10**21  V / m**2
                               V20  TOT/SRF=    -0.01225    -0.00045
                               V22  TOT/SRF=     0.01029    -0.00050
                               V22M TOT/SRF=     0.05034    -0.00101
                               V21  TOT/SRF=     0.00000     0.00000
                               V21M TOT/SRF=     0.00000     0.00000

              0.01736    0.05034    0.00000        0.05845    0.00000    0.00000
              0.05034   -0.00322    0.00000        0.00000   -0.04431    0.00000
              0.00000    0.00000   -0.01414        0.00000    0.00000   -0.01414

         MAIN DIRECTIONS OF THE EFG   1.0000 -0.8162  0.0000
                                      0.8162  1.0000  0.0000
                                      0.0000  0.0000  1.0000
:ANG002:  ANGLE WITH OLD X-AXIS =        39.2

:ETA002:                         ASYMM. ETA =     0.51614


       ATOMNUMBER=  3 Br         VCOUL-ZERO =  0.27245E+00
:EFG003:                        EFG         =     0.39283   *10**21  V / m**2
                               V20  TOT/SRF=     0.34020     0.06382
                               V22  TOT/SRF=     0.02353     0.00572
                               V22M TOT/SRF=    -0.02188    -0.01135
                               V21  TOT/SRF=     0.00000     0.00000
                               V21M TOT/SRF=     0.00000     0.00000

             -0.17288   -0.02188    0.00000       -0.16428    0.00000    0.00000
             -0.02188   -0.21995    0.00000        0.00000   -0.22855    0.00000
              0.00000    0.00000    0.39283        0.00000    0.00000    0.39283

         MAIN DIRECTIONS OF THE EFG   1.0000  0.3930  0.0000
                                     -0.3930  1.0000  0.0000
                                      0.0000  0.0000  1.0000
:ANG003:  ANGLE WITH OLD X-AXIS =        21.5

:ETA003:                         ASYMM. ETA =     0.16359


       ATOMNUMBER=  4 Br         VCOUL-ZERO =  0.27251E+00
:EFG004:                        EFG         =     0.37151   *10**21  V / m**2
                               V20  TOT/SRF=    -0.15383    -0.02760
                               V22  TOT/SRF=    -0.01839    -0.00450
                               V22M TOT/SRF=    -0.28081    -0.05252
                               V21  TOT/SRF=    -0.03151    -0.00408
                               V21M TOT/SRF=     0.00694     0.00787

              0.07043   -0.28081   -0.03151        0.37151    0.00000    0.00000
             -0.28081    0.10720    0.00694        0.00000   -0.20523    0.00000
             -0.03151    0.00694   -0.17763        0.00000    0.00000   -0.16628

         MAIN DIRECTIONS OF THE EFG  -0.9396  1.0000 -0.4726
                                      1.0000  0.8783 -0.5106
                                      0.0666  0.9210  1.0000
:ANG004:  ANGLE WITH OLD X-AXIS =       130.3

:ETA004:                         ASYMM. ETA =     0.10484


     HELLMANN-FEYNMAN-FORCE IN mRy/a.u. = |F|  Fx       Fy             Fz
:FHF001:   1.ATOM      0.000000000000      0.000000000000      0.000000000000      0.000000000000

     HELLMANN-FEYNMAN-FORCE IN mRy/a.u. = |F|  Fx       Fy             Fz
:FHF002:   2.ATOM     12.636716993209     12.499291285767      1.858583794188      0.000000000000

     HELLMANN-FEYNMAN-FORCE IN mRy/a.u. = |F|  Fx       Fy             Fz
:FHF003:   3.ATOM    202.058412770962    -77.956983634554   -186.414352650546      0.000000000000

     HELLMANN-FEYNMAN-FORCE IN mRy/a.u. = |F|  Fx       Fy             Fz
:FHF004:   4.ATOM    148.168195061688     42.462474484426     90.899158104070    109.032542593801

:FIT001: LUSE= 13 SIGMA OF V-XC FIT FOR ATOM  1  0.7733996E-03
:FIT001: LUSE= 13 SIGMA OF V-XC FIT FOR ATOM  1  0.7733996E-03
:FIT002: LUSE= 13 SIGMA OF V-XC FIT FOR ATOM  2  0.1723433E-04
:FIT002: LUSE= 13 SIGMA OF V-XC FIT FOR ATOM  2  0.1723433E-04
:FIT003: LUSE= 13 SIGMA OF V-XC FIT FOR ATOM  3  0.7129168E-03
:FIT003: LUSE= 13 SIGMA OF V-XC FIT FOR ATOM  3  0.7129168E-03
:FIT004: LUSE= 13 SIGMA OF V-XC FIT FOR ATOM  4  0.6337932E-03
:FIT004: LUSE= 13 SIGMA OF V-XC FIT FOR ATOM  4  0.6337932E-03
:DEN  : DENSITY INTEGRAL  =       -114050.65902355   (Ry)
       ELS_POTENTIAL_AT Z=0 and Z=0.5:  -0.53566  -0.53566
       ELS_POTENTIAL_AT Y=0 and Y=0.5:  -0.44805  -0.44805
:VZERO:v0,v0c,v0x  -1.24771  -0.53566  -0.71205 v5,v5c,v5x  -1.24771  -0.53566  -0.71205
:VZERY:v0,v0c,v0x  -1.07993  -0.44805  -0.63188 v5,v5c,v5x  -1.07993  -0.44805  -0.63188
:VZERX:v0,v0c,v0x  -1.07239  -0.44700  -0.62539 v5,v5c,v5x  -1.07239  -0.44700  -0.62539
:LMAX-WF:   10   Non-Spherical LMAX:   4

          ATOMIC SPHERE DEPENDENT PARAMETERS FOR ATOM  Pb        
:e__0001: OVERALL ENERGY PARAMETER IS    0.0022
          OVERALL BASIS SET ON ATOM IS LAPW
:E2_0001: E( 2)=    0.4022
             APW+lo
:E2_0001: E( 2)=   -0.9573   E(BOTTOM)=   -1.194   E(TOP)=   -0.720  2  3   127
             LOCAL ORBITAL
:E0_0001: E( 0)=    0.0022
             APW+lo
:E1_0001: E( 1)=    0.0022
             APW+lo

          ATOMIC SPHERE DEPENDENT PARAMETERS FOR ATOM  Cs        
:e__0002: OVERALL ENERGY PARAMETER IS    0.0022
          OVERALL BASIS SET ON ATOM IS LAPW
:E2_0002: E( 2)=    0.0022
             APW+lo
:E2_0002: E( 2)=   -4.8680   E(BOTTOM)=   -4.880   E(TOP)=   -4.856  1  2   120
             LOCAL ORBITAL
:E0_0002: E( 0)=    0.4022
             APW+lo
:E0_0002: E( 0)=   -1.3766   E(BOTTOM)=   -2.059   E(TOP)=   -0.694  4  5   168
             LOCAL ORBITAL
:E1_0002: E( 1)=    0.4022
             APW+lo
:E1_0002: E( 1)=   -0.2037   E(BOTTOM)=   -1.176   E(TOP)=    0.768  3  4   197
             LOCAL ORBITAL

          ATOMIC SPHERE DEPENDENT PARAMETERS FOR ATOM  Br        
:e__0003: OVERALL ENERGY PARAMETER IS    0.0022
          OVERALL BASIS SET ON ATOM IS LAPW
:E2_0003: E( 2)=    0.0022
             APW+lo
:E2_0003: E( 2)=   -4.3451   E(BOTTOM)=   -4.348   E(TOP)=   -4.342  1  1   125
             LOCAL ORBITAL
:E0_0003: E( 0)=    0.4022
             APW+lo
:E0_0003: E( 0)=   -0.9523   E(BOTTOM)=   -1.518   E(TOP)=   -0.386  3  4   156
             LOCAL ORBITAL
:E1_0003: E( 1)=    0.0022
             APW+lo

          ATOMIC SPHERE DEPENDENT PARAMETERS FOR ATOM  Br        
:e__0004: OVERALL ENERGY PARAMETER IS    0.0022
          OVERALL BASIS SET ON ATOM IS LAPW
:E2_0004: E( 2)=    0.0022
             APW+lo
:E2_0004: E( 2)=   -4.3451   E(BOTTOM)=   -4.348   E(TOP)=   -4.342  1  1   116
             LOCAL ORBITAL
:E0_0004: E( 0)=    0.4022
             APW+lo
:E0_0004: E( 0)=   -0.9523   E(BOTTOM)=   -1.518   E(TOP)=   -0.386  3  4   150
             LOCAL ORBITAL
:E1_0004: E( 1)=    0.0022
             APW+lo

       K=   0.02083   0.02174   0.03125            1
:RKM  : MATRIX SIZE  2237LOs: 308  RKM= 7.00  WEIGHT= 8.00  PGR:    
       EIGENVALUES ARE:
:EIG00001:      -4.8652433   -4.8652256   -4.8652205   -4.8652161   -4.8652132
:EIG00006:      -4.8652109   -4.8652071   -4.8652040   -4.8652009   -4.8651987
:EIG00011:      -4.8651937   -4.8651862   -4.8651796   -4.8651736   -4.8651644
:EIG00016:      -4.8651515   -4.8651461   -4.8651324   -4.8651176   -4.8651125
:EIG00021:      -4.3449809   -4.3449774   -4.3449760   -4.3449658   -4.3449555
:EIG00026:      -4.3449490   -4.3449458   -4.3449412   -4.3449405   -4.3449364
:EIG00031:      -4.3449355   -4.3449286   -4.3446903   -4.3446752   -4.3446719
:EIG00036:      -4.3446702   -4.3446211   -4.3446174   -4.3446128   -4.3446066
:EIG00041:      -4.3446035   -4.3445998   -4.3445949   -4.3445861   -4.3445632
:EIG00046:      -4.3445572   -4.3445453   -4.3445356   -4.3445303   -4.3445272
 
:EIG00051:      -4.3445221   -4.3445176   -4.3443933   -4.3443928   -4.3443869
:EIG00056:      -4.3443787   -4.3439543   -4.3439525   -4.3439431   -4.3439405
:EIG00061:      -4.3439338   -4.3439328   -4.3439298   -4.3439253   -4.3439123
:EIG00066:      -4.3439042   -4.3438974   -4.3438940   -4.3438931   -4.3438925
:EIG00071:      -4.3438896   -4.3438841   -4.3438827   -4.3438817   -4.3438792
:EIG00076:      -4.3438757   -4.3438276   -4.3438226   -4.3438207   -4.3438160
:EIG00081:      -1.3827141   -1.3825491   -1.3823638   -1.3822587   -0.9783870
:EIG00086:      -0.9781148   -0.9780439   -0.9768397   -0.9753774   -0.9721938
:EIG00091:      -0.9535948   -0.9535233   -0.9531691   -0.9529150   -0.9527077
:EIG00096:      -0.9522807   -0.9239064   -0.9237659   -0.9236087   -0.9170161
 
:EIG00101:      -0.9169621   -0.9169008   -0.9168198   -0.9167635   -0.9166589
:EIG00106:      -0.9163067   -0.9162329   -0.9161479   -0.9160262   -0.9160107
:EIG00111:      -0.9156863   -0.9114252   -0.8977961   -0.8853729   -0.8850709
:EIG00116:      -0.8846003   -0.4245913   -0.4240887   -0.4221895   -0.4216145
:EIG00121:      -0.4200746   -0.4196114   -0.4193660   -0.4178221   -0.4177414
:EIG00126:      -0.4175343   -0.4171978   -0.4163395   -0.4153156   -0.3807174
:EIG00131:      -0.3400836   -0.2776327   -0.1571896   -0.1569423   -0.1557799
:EIG00136:      -0.1489821   -0.1485558   -0.1391255   -0.1054876   -0.0869835
:EIG00141:      -0.0839548   -0.0827505   -0.0814234   -0.0742904   -0.0641008
:EIG00146:      -0.0593602   -0.0583834   -0.0546647   -0.0526329   -0.0504512
 
:EIG00151:      -0.0477822   -0.0464245   -0.0458838   -0.0444485   -0.0373415
:EIG00156:      -0.0336224   -0.0334649   -0.0327746   -0.0302350   -0.0290176
:EIG00161:      -0.0277331   -0.0257784   -0.0237957   -0.0235071   -0.0066846
:EIG00166:       0.0479918    0.0964586    0.1511882    0.3247131    0.3272548
:EIG00171:       0.3312868    0.3576924    0.3706857    0.3883109    0.3930079
:EIG00176:       0.4739536    0.4801864    0.4872806    0.4911051    0.5230060
:EIG00181:       0.5231847    0.5276190    0.5350804    0.5394011    0.5405692
:EIG00186:       0.5411968    0.5481205    0.5518611    0.5643143    0.5682103
:EIG00191:       0.5724131    0.5764672    0.5927553    0.5936739    0.5971540
:EIG00196:       0.6035545    0.6077593    0.6104458    0.6115882    0.6190157
 
:EIG00201:       0.6273719    0.6315481    0.6454597    0.6496234    0.6519186
:EIG00206:       0.6652139    0.6679601    0.6817115    0.6871155    0.6939001
:EIG00211:       0.7069066    0.7256295    0.7317253    0.7468711    0.7492978
:EIG00216:       0.7507261    0.7530444    0.7583053    0.7719306    0.7787277
:EIG00221:       0.7791772    0.7831692    0.7857452    0.8274292    0.8479970
:EIG00226:       0.8511826    0.8524778    0.8548178    0.8592536    0.8595618
:EIG00231:       0.8626641    0.8748897    0.8844334    0.8860979    0.8993098
:EIG00236:       0.9204740    0.9297973    0.9454391    0.9502853    0.9529985
:EIG00241:       0.9539766    0.9579202    0.9750633    0.9768820    0.9873890
:EIG00246:       0.9889889    1.0066771    1.0085881    1.0118049    1.0138856
 
:EIG00251:       1.0178314    1.0220247    1.0385028    1.0466940    1.0530371
:EIG00256:       1.0646429    1.0775812    1.0837160    1.0848799    1.0876102
:EIG00261:       1.0882191    1.0932659    1.0953417    1.0980689    1.1040916
:EIG00266:       1.1101900    1.1129587    1.1199876    1.1265443    1.1268355
:EIG00271:       1.1288078    1.1340949    1.1389405    1.1408191    1.1545203
:EIG00276:       1.1587374    1.1633592    1.1650694    1.1692565    1.1702854
:EIG00281:       1.1722036    1.1780809    1.1804782    1.1833217    1.1858990
:EIG00286:       1.1870228    1.1904668    1.1988570    1.2133031    1.2172518
:EIG00291:       1.2175183    1.2213229    1.2241588    1.2290987    1.2346889
:EIG00296:       1.2359725    1.2414619    1.2446109    1.2491065    1.2532306
 
:EIG00301:       1.2639211    1.2641869    1.2740358    1.2805941    1.2824466
:EIG00306:       1.2958317    1.3012462    1.3049950    1.3109666    1.3145315
:EIG00311:       1.3152931    1.3378618    1.3386104    1.3466525    1.3518117
:EIG00316:       1.3591807    1.3651413    1.3768185    1.3786492    1.3818377
:EIG00321:       1.3858868    1.3953387    1.4052570    1.4081387    1.4162101
:EIG00326:       1.4313203    1.4336887    1.4358981    1.4384952    1.4406920
:EIG00331:       1.4458838    1.4501814    1.4507405    1.4541988    1.4636078
:EIG00336:       1.4664335    1.4722972    1.4752146    1.4834670    1.4845156
:EIG00341:       1.4951548    1.4979992    1.5000552    1.5031735    1.5074515
:EIG00346:       1.5144866    1.5169817    1.5207113    1.5210331    1.5257176
 
:EIG00351:       1.5376239    1.5418849    1.5463825    1.5469279    1.5484325
:EIG00356:       1.5629579    1.5654431    1.5712481    1.5781173    1.5821789
:EIG00361:       1.5893171    1.5956836    1.6070721    1.6117424    1.6293192
:EIG00366:       1.6301231    1.6378639    1.6392691    1.6494375    1.6522074
:EIG00371:       1.6542561    1.6592119    1.6634171    1.6717207    1.6781514
:EIG00376:       1.6790955    1.6861649    1.6883590    1.6960171
       ********************************************************

:KPT   :      NUMBER OF K-POINTS:  1152
       Insulator, EF-inconsistency corrected
:GAP (global)   :  0.173525 Ry =     2.361 eV (accurate value if proper k-mesh)
         Bandranges (emin - emax) and occupancy:
:BAN00158: 158   -0.042595   -0.031098  2.00000000
:BAN00159: 159   -0.039435   -0.030235  2.00000000
:BAN00160: 160   -0.039435   -0.029018  2.00000000
:BAN00161: 161   -0.035640   -0.027720  2.00000000
:BAN00162: 162   -0.034892   -0.024830  2.00000000
:BAN00163: 163   -0.029452   -0.019445  2.00000000
:BAN00164: 164   -0.029310   -0.019445  2.00000000
:BAN00165: 165   -0.006686    0.055094  2.00000000
:BAN00166: 166    0.004916    0.061055  2.00000000
:BAN00167: 167    0.030970    0.109926  2.00000000
:BAN00168: 168    0.035786    0.151188  2.00000000
:BAN00169: 169    0.324713    0.431752  0.00000000
:BAN00170: 170    0.327255    0.431752  0.00000000
:BAN00171: 171    0.331287    0.433634  0.00000000
:BAN00172: 172    0.351737    0.440286  0.00000000
:BAN00173: 173    0.366251    0.445088  0.00000000
        Energy to separate low and high energystates:   -0.47459


:NOE  : NUMBER OF ELECTRONS          =  336.000

:FER  : F E R M I - ENERGY(TETRAH.M.)=   0.1511882054
:GMA  : POTENTIAL AND CHARGE CUT-OFF  12.00 Ry**.5

:POS001: ATOM   -1 X,Y,Z = 0.50000 0.50000 0.50000  MULT= 4  ZZ= 82.000  Pb        

       LMMAX 28
       LM=   0 0  2 0  2 1 -2 1  2 2 -2 2  4 0  4 1 -4 1  4 2 -4 2  4 3 -4 3  4 4 -4 4  6 0  6 1
        -6 1  6 2 -6 2  6 3 -6 3  6 4 -6 4  6 5 -6 5  6 6 -6 6

:CHA001: TOTAL VALENCE CHARGE INSIDE SPHERE   1 =  11.3233    (RMT=  2.5000 )
:PCS001: PARTIAL CHARGES SPHERE =  1 S,P,D,F,PX,PY,PZ,D-Z2,D-X2Y2,D-XY,D-XZ,D-YZ 
:QTL001: 1.3326 0.2711 9.7047 0.0126 0.0895 0.0902 0.0914 1.9488 1.9370 1.9474 1.9361 1.9354
        Q-s-low E-s-low   Q-p-low E-p-low   Q-d-low E-d-low   Q-f-low E-f-low
:EPL001:  0.0185 -0.9602    0.0089 -0.9517    9.6299 -0.9184    0.0010 -0.9617
        Q-s-hi  E-s-hi    Q-p-hi  E-p-hi    Q-d-hi  E-d-hi    Q-f-hi  E-f-hi 
:EPH001:  1.3141 -0.2347    0.2622 -0.0991    0.0748 -0.0635    0.0115 -0.0651

                      QXX         QXY         QYY         QZZ       UP TO R
:VZZ001:             0.65294     0.66989     0.13997    -0.79292       2.500

:POS002: ATOM   -2 X,Y,Z = 0.48491 0.94655 0.25000  MULT= 4  ZZ= 55.000  Cs        

       LMMAX 28
       LM=   0 0  1 1 -1 1  2 0  2 2 -2 2  3 1 -3 1  3 3 -3 3  4 0  4 2 -4 2  4 4 -4 4  5 1 -5 1
         5 3 -5 3  5 5 -5 5  6 0  6 2 -6 2  6 4 -6 4  6 6 -6 6

:CHA002: TOTAL VALENCE CHARGE INSIDE SPHERE   2 =  16.2972    (RMT=  2.5000 )
:PCS002: PARTIAL CHARGES SPHERE =  2 S,P,D,F,PX,PY,PZ,D-Z2,D-X2Y2,D-XY,D-XZ,D-YZ 
:QTL002: 1.7962 4.489410.0095 0.0018 1.4957 1.4966 1.4971 2.0014 2.0023 2.0011 2.0020 2.0027
        Q-s-low E-s-low   Q-p-low E-p-low   Q-d-low E-d-low   Q-f-low E-f-low
:EPL002:  1.7867 -1.3821    0.0022 -0.9511    9.9946 -4.8651    0.0001 -1.0291
        Q-s-hi  E-s-hi    Q-p-hi  E-p-hi    Q-d-hi  E-d-hi    Q-f-hi  E-f-hi 
:EPH002:  0.0095 -0.0831    4.4872 -0.4067    0.0149 -0.0580    0.0017 -0.0510

                      QXX         QXY         QYY         QZZ       UP TO R
:VZZ002:             0.56060     1.62497    -0.11569    -0.44491       2.500

:POS003: ATOM   -3 X,Y,Z = 0.56000 0.50750 0.25000  MULT= 4  ZZ= 35.000  Br        

       LMMAX 28
       LM=   0 0  1 1 -1 1  2 0  2 2 -2 2  3 1 -3 1  3 3 -3 3  4 0  4 2 -4 2  4 4 -4 4  5 1 -5 1
         5 3 -5 3  5 5 -5 5  6 0  6 2 -6 2  6 4 -6 4  6 6 -6 6

:CHA003: TOTAL VALENCE CHARGE INSIDE SPHERE   3 =  15.9413    (RMT=  2.5000 )
:PCS003: PARTIAL CHARGES SPHERE =  3 S,P,D,F,PX,PY,PZ,D-Z2,D-X2Y2,D-XY,D-XZ,D-YZ 
:QTL003: 1.7963 4.128110.0140 0.0024 1.3955 1.3995 1.3330 2.0109 2.0004 2.0002 2.0017 2.0010
        Q-s-low E-s-low   Q-p-low E-p-low   Q-d-low E-d-low   Q-f-low E-f-low
:EPL003:  1.7648 -0.9533    0.0061 -0.9215   10.0001 -4.3438    0.0006 -0.9317
        Q-s-hi  E-s-hi    Q-p-hi  E-p-hi    Q-d-hi  E-d-hi    Q-f-hi  E-f-hi 
:EPH003:  0.0315 -0.2533    4.1220 -0.0654    0.0140 -0.1224    0.0018 -0.1718

                      QXX         QXY         QYY         QZZ       UP TO R
:VZZ003:            -5.44111    -0.34453    -6.68059    12.12170       2.500

:POS004: ATOM   -4 X,Y,Z = 0.19962 0.70227 0.46752  MULT= 8  ZZ= 35.000  Br        

       LMMAX 49

:CHA004: TOTAL VALENCE CHARGE INSIDE SPHERE   4 =  15.9420    (RMT=  2.5000 )
:PCS004: PARTIAL CHARGES SPHERE =  4 S,P,D,F,PX,PY,PZ,D-Z2,D-X2Y2,D-XY,D-XZ,D-YZ 
:QTL004: 1.7961 4.129410.0136 0.0024 1.3680 1.3648 1.3966 2.0027 2.0019 2.0073 2.0008 2.0009
        Q-s-low E-s-low   Q-p-low E-p-low   Q-d-low E-d-low   Q-f-low E-f-low
:EPL004:  1.7653 -0.9532    0.0059 -0.9205   10.0000 -4.3438    0.0006 -0.9343
        Q-s-hi  E-s-hi    Q-p-hi  E-p-hi    Q-d-hi  E-d-hi    Q-f-hi  E-f-hi 
:EPH004:  0.0308 -0.2538    4.1236 -0.0653    0.0136 -0.1249    0.0018 -0.1664

                      QXX         QXY         QYY         QZZ       UP TO R
:VZZ004:             2.30679    -8.65611     3.28781    -5.59459       2.500

:CHA  : TOTAL VALENCE CHARGE INSIDE UNIT CELL =     336.000000

:SUM  : SUM OF EIGENVALUES =        -803.615927317


        1.ATOM      Pb                   19 CORE STATES
:1S 001: 1S               -6465.881675867 Ry
:2S 001: 2S               -1154.927895604 Ry
:2PP001: 2P*              -1108.918535385 Ry
:2P 001: 2P                -947.959796157 Ry
:3S 001: 3S                -276.717210608 Ry
:3PP001: 3P*               -255.991915809 Ry
:3P 001: 3P                -220.078102971 Ry
:3DD001: 3D*               -186.086470437 Ry
:3D 001: 3D                -178.446151984 Ry
:4S 001: 4S                 -62.151883720 Ry
:4PP001: 4P*                -53.187071030 Ry
:4P 001: 4P                 -44.396376288 Ry
:4DD001: 4D*                -29.815562300 Ry
:4D 001: 4D                 -28.175365766 Ry
:5S 001: 5S                  -9.926651690 Ry
:5PP001: 5P*                 -6.871461760 Ry
:5P 001: 5P                  -5.229980311 Ry
:4FF001: 4F*                 -9.302934432 Ry
:4F 001: 4F                  -8.933200310 Ry

        2.ATOM      Cs                   12 CORE STATES
       CORE-FORCE in mRy/a.u. = |F|      Fx             Fy             Fz
:FCO002:   2.ATOM      8.486494756159     -8.383905137821     -1.315571315567      0.000000000000

:1S 002: 1S               -2628.602401423 Ry
:2S 002: 2S                -411.675395609 Ry
:2PP002: 2P*               -387.238234027 Ry
:2P 002: 2P                -361.346446516 Ry
:3S 002: 3S                 -85.125002639 Ry
:3PP002: 3P*                -74.921609256 Ry
:3P 002: 3P                 -69.959730526 Ry
:3DD002: 3D*                -52.040484922 Ry
:3D 002: 3D                 -50.987151177 Ry
:4S 002: 4S                 -15.590422523 Ry
:4PP002: 4P*                -11.929564440 Ry
:4P 002: 4P                 -10.917613261 Ry

        3.ATOM      Br                    7 CORE STATES
       CORE-FORCE in mRy/a.u. = |F|      Fx             Fy             Fz
:FCO003:   3.ATOM    104.346740180070     38.773720561061     96.875387896306      0.000000000000

[...]
:EIG00141:      -0.0559023   -0.0550272   -0.0538325   -0.0476549   -0.0380118
:EIG00146:      -0.0279985   -0.0274473   -0.0271748   -0.0228684   -0.0215443
 
:EIG00151:      -0.0211582   -0.0193654   -0.0157301   -0.0149320   -0.0145397
:EIG00156:      -0.0140962   -0.0124412   -0.0057668    0.0006562    0.0017380
:EIG00161:       0.0036007    0.0078866    0.0107312    0.0133857    0.0248699
:EIG00166:       0.0417568    0.0801671    0.1277259    0.2659398    0.2667209
:EIG00171:       0.2749741    0.2975981    0.3102970    0.3267146    0.4060955
:EIG00176:       0.4856295    0.4877005    0.4916901    0.4967129    0.5011718
:EIG00181:       0.5052744    0.5076880    0.5203344    0.5270271    0.5355930
:EIG00186:       0.5402749    0.5435122    0.5448677    0.5492473    0.5521982
:EIG00191:       0.5577496    0.5607194    0.5649803    0.5799486    0.5834448
:EIG00196:       0.5865358    0.6088836    0.6123198    0.6137977    0.6228926
 
:EIG00201:       0.6242531    0.6257587    0.6381630    0.6484423    0.6503899
:EIG00206:       0.6669470    0.6703483    0.6736399    0.6890245    0.6983988
:EIG00211:       0.7110274    0.7188810    0.7342424    0.7370430    0.7467702
:EIG00216:       0.7510302    0.7548735    0.7656999    0.7749286    0.7858850
:EIG00221:       0.7885313    0.7907173    0.7938146    0.8209080    0.8419155
:EIG00226:       0.8430433    0.8503187    0.8514357    0.8531409    0.8596891
:EIG00231:       0.8665261    0.8707823    0.8733598    0.8804498    0.9031311
:EIG00236:       0.9213610    0.9254991    0.9361367    0.9459962    0.9483951
:EIG00241:       0.9535832    0.9588385    0.9603709    0.9770378    0.9815347
:EIG00246:       0.9850954    0.9854870    1.0031079    1.0110403    1.0132104
 
:EIG00251:       1.0150314    1.0156726    1.0351739    1.0425818    1.0492957
:EIG00256:       1.0525383    1.0682096    1.0723371    1.0818584    1.0829493
:EIG00261:       1.0865332    1.0939424    1.0979173    1.1007129    1.1043072
:EIG00266:       1.1068194    1.1102039    1.1166274    1.1233614    1.1260690
:EIG00271:       1.1291207    1.1323109    1.1389962    1.1428474    1.1504883
:EIG00276:       1.1576578    1.1598147    1.1609524    1.1647945    1.1680044
:EIG00281:       1.1708829    1.1721118    1.1734698    1.1779290    1.1814663
:EIG00286:       1.1831342    1.1896662    1.1946279    1.2062748    1.2116542
:EIG00291:       1.2132042    1.2190901    1.2257934    1.2270988    1.2346938
:EIG00296:       1.2368611    1.2388144    1.2426224    1.2490977    1.2508313
 
:EIG00301:       1.2588896    1.2597075    1.2661191    1.2756471    1.2808680
:EIG00306:       1.2887219    1.2950442    1.2981936    1.2999312    1.3025906
:EIG00311:       1.3108832    1.3280719    1.3313864    1.3363323    1.3452501
:EIG00316:       1.3461960    1.3562128    1.3665020    1.3773154    1.3782677
:EIG00321:       1.3850079    1.3898043    1.3930043    1.4005443    1.4034526
:EIG00326:       1.4185372    1.4229795    1.4245713    1.4303870    1.4317458
:EIG00331:       1.4343666    1.4383413    1.4437121    1.4472664    1.4528005
:EIG00336:       1.4631784    1.4692308    1.4786622    1.4819636    1.4822139
:EIG00341:       1.4862592    1.4885655    1.4896736    1.4967269    1.5003982
:EIG00346:       1.5105475    1.5172498    1.5203304    1.5249786    1.5260490
 
:EIG00351:       1.5324802    1.5333022    1.5398501    1.5420347    1.5503309
:EIG00356:       1.5582032    1.5593860    1.5633045    1.5721546    1.5820442
:EIG00361:       1.5853772    1.5869680    1.6095201    1.6103930    1.6182015
:EIG00366:       1.6189810
       ********************************************************

:KPT   :      NUMBER OF K-POINTS:  1152
       Insulator, EF-inconsistency corrected
:GAP (global)   :  0.138214 Ry =     1.880 eV (accurate value if proper k-mesh)
         Bandranges (emin - emax) and occupancy:
:BAN00158: 158   -0.011513    0.001072  2.00000000
:BAN00159: 159   -0.010501    0.001673  2.00000000
:BAN00160: 160   -0.010297    0.002221  2.00000000
:BAN00161: 161   -0.008519    0.004769  2.00000000
:BAN00162: 162   -0.008519    0.007887  2.00000000
:BAN00163: 163    0.003559    0.013652  2.00000000
:BAN00164: 164    0.004260    0.013652  2.00000000
:BAN00165: 165    0.017133    0.043912  2.00000000
:BAN00166: 166    0.019634    0.048896  2.00000000
:BAN00167: 167    0.023083    0.089169  2.00000000
:BAN00168: 168    0.024785    0.127726  2.00000000
:BAN00169: 169    0.265940    0.392395  0.00000000
:BAN00170: 170    0.266721    0.392395  0.00000000
:BAN00171: 171    0.274974    0.394341  0.00000000
:BAN00172: 172    0.294111    0.398754  0.00000000
:BAN00173: 173    0.306284    0.402043  0.00000000
        Energy to separate low and high energystates:   -0.21426


:NOE  : NUMBER OF ELECTRONS          =  336.000

:FER  : F E R M I - ENERGY(TETRAH.M.)=   0.1277258709
:GMA  : POTENTIAL AND CHARGE CUT-OFF  12.00 Ry**.5

:POS001: ATOM   -1 X,Y,Z = 0.50000 0.50000 0.50000  MULT= 4  ZZ= 82.000  Pb        

       LMMAX 28
       LM=   0 0  2 0  2 1 -2 1  2 2 -2 2  4 0  4 1 -4 1  4 2 -4 2  4 3 -4 3  4 4 -4 4  6 0  6 1
        -6 1  6 2 -6 2  6 3 -6 3  6 4 -6 4  6 5 -6 5  6 6 -6 6

:CHA001: TOTAL VALENCE CHARGE INSIDE SPHERE   1 =  11.5214    (RMT=  2.5000 )
:PCS001: PARTIAL CHARGES SPHERE =  1 S,P,D,F,PX,PY,PZ,D-Z2,D-X2Y2,D-XY,D-XZ,D-YZ 
:QTL001: 1.3766 0.3923 9.7353 0.0147 0.1303 0.1309 0.1311 1.9553 1.9427 1.9541 1.9419 1.9413
        Q-s-low E-s-low   Q-p-low E-p-low   Q-d-low E-d-low   Q-f-low E-f-low
:EPL001:  1.0870 -0.4650    0.0162 -0.7973    9.6678 -1.0789    0.0015 -0.8526
        Q-s-hi  E-s-hi    Q-p-hi  E-p-hi    Q-d-hi  E-d-hi    Q-f-hi  E-f-hi 
:EPH001:  0.2897  0.0275    0.3760 -0.0995    0.0676 -0.0370    0.0133 -0.0398

                      QXX         QXY         QYY         QZZ       UP TO R
:VZZ001:             0.37975     0.73636    -0.14588    -0.23387       2.500

:POS002: ATOM   -2 X,Y,Z = 0.48491 0.94655 0.25000  MULT= 4  ZZ= 55.000  Cs        

       LMMAX 28
       LM=   0 0  1 1 -1 1  2 0  2 2 -2 2  3 1 -3 1  3 3 -3 3  4 0  4 2 -4 2  4 4 -4 4  5 1 -5 1
         5 3 -5 3  5 5 -5 5  6 0  6 2 -6 2  6 4 -6 4  6 6 -6 6

:CHA002: TOTAL VALENCE CHARGE INSIDE SPHERE   2 =  16.3232    (RMT=  2.5000 )
:PCS002: PARTIAL CHARGES SPHERE =  2 S,P,D,F,PX,PY,PZ,D-Z2,D-X2Y2,D-XY,D-XZ,D-YZ 
:QTL002: 1.7981 4.510610.0124 0.0020 1.5026 1.5036 1.5043 2.0019 2.0029 2.0016 2.0025 2.0034
        Q-s-low E-s-low   Q-p-low E-p-low   Q-d-low E-d-low   Q-f-low E-f-low
:EPL002:  1.7880 -1.3990    4.3813 -0.4331    9.9947 -4.8857    0.0001 -0.9197
        Q-s-hi  E-s-hi    Q-p-hi  E-p-hi    Q-d-hi  E-d-hi    Q-f-hi  E-f-hi 
:EPH002:  0.0101 -0.0523    0.1292 -0.0396    0.0177 -0.0261    0.0019 -0.0176

                      QXX         QXY         QYY         QZZ       UP TO R
:VZZ002:             0.78362     2.19227    -0.08150    -0.70211       2.500

:POS003: ATOM   -3 X,Y,Z = 0.56000 0.50750 0.25000  MULT= 4  ZZ= 35.000  Br        

       LMMAX 28
       LM=   0 0  1 1 -1 1  2 0  2 2 -2 2  3 1 -3 1  3 3 -3 3  4 0  4 2 -4 2  4 4 -4 4  5 1 -5 1
         5 3 -5 3  5 5 -5 5  6 0  6 2 -6 2  6 4 -6 4  6 6 -6 6

:CHA003: TOTAL VALENCE CHARGE INSIDE SPHERE   3 =  15.7598    (RMT=  2.5000 )
:PCS003: PARTIAL CHARGES SPHERE =  3 S,P,D,F,PX,PY,PZ,D-Z2,D-X2Y2,D-XY,D-XZ,D-YZ 
:QTL003: 1.7829 3.959310.0141 0.0029 1.3527 1.3593 1.2474 2.0105 2.0003 2.0002 2.0019 2.0012
        Q-s-low E-s-low   Q-p-low E-p-low   Q-d-low E-d-low   Q-f-low E-f-low
:EPL003:  1.7707 -0.9057    0.0871 -0.4832   10.0046 -4.2857    0.0014 -0.6847
        Q-s-hi  E-s-hi    Q-p-hi  E-p-hi    Q-d-hi  E-d-hi    Q-f-hi  E-f-hi 
:EPH003:  0.0122 -0.0537    3.8722 -0.0344    0.0095 -0.0265    0.0015 -0.0675

                      QXX         QXY         QYY         QZZ       UP TO R
:VZZ003:            -9.13161    -0.26864   -11.06005    20.19165       2.500

:POS004: ATOM   -4 X,Y,Z = 0.19962 0.70227 0.46752  MULT= 8  ZZ= 35.000  Br        

       LMMAX 49

:CHA004: TOTAL VALENCE CHARGE INSIDE SPHERE   4 =  15.7587    (RMT=  2.5000 )
:PCS004: PARTIAL CHARGES SPHERE =  4 S,P,D,F,PX,PY,PZ,D-Z2,D-X2Y2,D-XY,D-XZ,D-YZ 
:QTL004: 1.7828 3.958810.0137 0.0028 1.3050 1.2996 1.3542 2.0026 2.0021 2.0071 2.0009 2.0010
        Q-s-low E-s-low   Q-p-low E-p-low   Q-d-low E-d-low   Q-f-low E-f-low
:EPL004:  1.7707 -0.9045    0.0847 -0.4826   10.0045 -4.2848    0.0014 -0.6870
        Q-s-hi  E-s-hi    Q-p-hi  E-p-hi    Q-d-hi  E-d-hi    Q-f-hi  E-f-hi 
:EPH004:  0.0120 -0.0554    3.8741 -0.0335    0.0092 -0.0289    0.0015 -0.0635

                      QXX         QXY         QYY         QZZ       UP TO R
:VZZ004:             3.99638   -14.39296     5.56876    -9.56514       2.500

:CHA  : TOTAL VALENCE CHARGE INSIDE UNIT CELL =     336.000000

:SUM  : SUM OF EIGENVALUES =        -802.946408698


        1.ATOM      Pb                   19 CORE STATES
:1S 001: 1S               -6466.070343840 Ry
:2S 001: 2S               -1155.106223359 Ry
:2PP001: 2P*              -1109.098927971 Ry
:2P 001: 2P                -948.138665005 Ry
:3S 001: 3S                -276.887543294 Ry
:3PP001: 3P*               -256.162756427 Ry
:3P 001: 3P                -220.248284444 Ry
:3DD001: 3D*               -186.257271587 Ry
:3D 001: 3D                -178.616700481 Ry
:4S 001: 4S                 -62.319099526 Ry
:4PP001: 4P*                -53.354317371 Ry
:4P 001: 4P                 -44.563435804 Ry
:4DD001: 4D*                -29.982502833 Ry
:4D 001: 4D                 -28.342230048 Ry
:5S 001: 5S                 -10.092648501 Ry
:5PP001: 5P*                 -7.037722233 Ry
:5P 001: 5P                  -5.396461459 Ry
:4FF001: 4F*                 -9.469368262 Ry
:4F 001: 4F                  -9.099604066 Ry

        2.ATOM      Cs                   12 CORE STATES
       CORE-FORCE in mRy/a.u. = |F|      Fx             Fy             Fz
:FCO002:   2.ATOM      6.468202314716     -6.267345811379      1.599380400248      0.000000000000

:1S 002: 1S               -2628.651971837 Ry
:2S 002: 2S                -411.714988957 Ry
:2PP002: 2P*               -387.279730570 Ry
:2P 002: 2P                -361.387309347 Ry
:3S 002: 3S                 -85.153311822 Ry
:3PP002: 3P*                -74.950388755 Ry
:3P 002: 3P                 -69.988085778 Ry
:3DD002: 3D*                -52.069835194 Ry
:3D 002: 3D                 -51.016338136 Ry
:4S 002: 4S                 -15.612006648 Ry
:4PP002: 4P*                -11.950987045 Ry
:4P 002: 4P                 -10.938819067 Ry

        3.ATOM      Br                    7 CORE STATES
       CORE-FORCE in mRy/a.u. = |F|      Fx             Fy             Fz
:FCO003:   3.ATOM     82.718313616339    -71.416356084088     41.737554926011      0.000000000000

:1S 003: 1S                -977.915073342 Ry
:2S 003: 2S                -126.709441401 Ry
:2PP003: 2P*               -114.040124494 Ry
:2P 003: 2P                -110.548650690 Ry
:3S 003: 3S                 -16.877423183 Ry
:3PP003: 3P*                -12.472854721 Ry
:3P 003: 3P                 -11.970557369 Ry

        4.ATOM      Br                    7 CORE STATES
       CORE-FORCE in mRy/a.u. = |F|      Fx             Fy             Fz
:FCO004:   4.ATOM    113.414612452433     77.245200509860     63.516299056142     53.495168661645

:1S 004: 1S                -977.914083305 Ry
:2S 004: 2S                -126.708440370 Ry
:2PP004: 2P*               -114.039124905 Ry
:2P 004: 2P                -110.547650876 Ry
:3S 004: 3S                 -16.876407869 Ry
:3PP004: 3P*                -12.471839008 Ry
:3P 004: 3P                 -11.969541192 Ry
:CINT001 Core Integral Atom   1   67.995200
:CINT002 Core Integral Atom   2   35.999909
:CINT003 Core Integral Atom   3   17.999988
:CINT004 Core Integral Atom   4   17.999988

       DENSITY AT NUCLEUS
        JATOM        VALENCE       SEMI-CORE          CORE           TOTAL
:RTO001:   1     2059.489309        0.000000  9911370.686419  9913430.175728
:RTO002:   2      321.521565        0.000000   438173.472035   438494.993600
:RTO003:   3       72.170617        0.000000    45839.372443    45911.543060
:RTO004:   4       72.162773        0.000000    45839.373240    45911.536013
     
       CHARGES OF NEW CHARGE DENSITY
:NTO   : INTERSTITIAL CHARGE =    35.512277
:NPC   : PW Pseudocharge     =   102.659104
:NTO001: CHARGE SPHERE  1    =    79.516637
:NTO002: CHARGE SPHERE  2    =    52.323137
:NTO003: CHARGE SPHERE  3    =    33.759795
:NTO004: CHARGE SPHERE  4    =    33.758715

:NEC01: NUCLEAR AND ELECTRONIC CHARGE    968.00000   967.98027
     
       CHARGES OF OLD CHARGE DENSITY
:OTO   : INTERSTITIAL CHARGE =    35.531297
:OPC   : PW Pseudocharge     =   102.714335
:OTO001: CHARGE SPHERE  1    =    79.516615
:OTO002: CHARGE SPHERE  2    =    52.323103
:OTO003: CHARGE SPHERE  3    =    33.759871
:OTO004: CHARGE SPHERE  4    =    33.758793

:NEC02: NUCLEAR AND ELECTRONIC CHARGE    968.00000   968.00000
     
       CONVERGENCE TEST
:DTO001: DIFFERENCE IN SPHERE  1 =  0.0002323
:DTO002: DIFFERENCE IN SPHERE  2 =  0.0000884
:DTO003: DIFFERENCE IN SPHERE  3 =  0.0000981
:DTO004: DIFFERENCE IN SPHERE  4 =  0.0000982

:DIS  :  CHARGE DISTANCE       ( 0.0002323 for atom    1 spin 1)      0.0001231
 PW Mixed is         2248
 
******************************************************
* MULTISECANT MIXING VER9 RELEASE 10.4.0              *
* Standard Mode with controls                        *
* Fixed density scale                                *
* Regularization       1.000E-04                     *
* Trust Upper Limit    5.000E+00                     *
* Max Number of Memory Steps    8                    *
******************************************************
 
:PWTMP   3.9481E+03  2.5000E+03  5.2571E+03
:PLANE:  PW TOTAL      8.0814 DISTAN   7.79E-04  9.64E-03 %
:CHARG:  CLM/ATOM   1115.9443 DISTAN   1.77E-04  1.58E-05 %
 
Step History
        DMIX         DMIXT        Red     Pred      Trust     Lambda    MagRel    MagAbs     Beta
  2   2.5000E-02   2.5000E-02  3.68E-01  1.00E+00 -1.00E+01  1.00E+00  2.50E-02  8.99E-02  1.00E+00
  3   4.3010E-02   4.3010E-02  8.39E-01  1.00E+00 -1.00E+01  7.90E-02  4.30E-02  5.70E-02  1.00E+00
  4   1.0752E-01   1.0752E-01  8.31E-01  1.00E+00  3.20E-01  1.28E+00  1.08E-01  1.20E-01  9.96E-01
  5   2.4740E-01   1.5049E-01  7.09E-01  7.79E-01  5.99E-01  1.25E+00  2.28E-01  2.11E-01  1.00E+00
  6   3.5000E-01   2.8165E-01  4.64E-01  5.18E-01  1.34E+00  1.08E+00  4.77E-01  3.12E-01  1.00E+00
  7   3.5000E-01   3.5000E-01  7.41E-02  1.62E-01  3.81E+00  8.06E-01  9.78E-01  2.97E-01  1.00E+00
  8   2.7773E-01   2.7773E-01  4.93E-01  6.36E-01  1.50E+01  1.12E+00  4.93E-01  1.11E-02  1.00E+00
  9   3.5000E-01   3.5000E-01  3.12E-01  6.69E-01  1.88E+01  8.71E-01  6.53E-01  7.25E-03  1.00E+00
 10   3.5000E-01   3.5000E-01 -1.00E+00  4.81E-01  2.25E+01  1.00E+00  7.57E-01  2.62E-03  1.00E+00
:JACOBIANS    2.351E+00   1.967E+00
  
:NORMS:  1/Froebius, Min, Max, Used   0.8941E+00  0.6756E+00  0.1017E+01  0.9344E+00
:INFO :  Number of Memory Steps    8 Skipping    1
:INFO :  SLambda=    1.0484028597  Max    1.0484028597
:PREDicted Charge, CTotal, PW Trust    3.150E-04   8.298E-04   2.207E-03
:PREDicted DMix, Beta, BLim   6.8580E-01  1.2666E+00  6.1578E+00

Eigenvalues, unscaled except for SY+YY
   #     SY Real        SY Imag          SS             YY         SY+YY Real      SY+YY Imag
   1   3.829659E+00   0.000000E+00   4.070301E+00   4.661573E+00   8.656876E+00   0.000000E+00
   2   2.151666E+00   0.000000E+00   1.876492E+00   2.439621E+00   4.707886E+00   0.000000E+00
   3   2.871660E-01   0.000000E+00   2.660645E-01   4.645816E-01   7.393172E-01   0.000000E+00
   4   2.518575E-01   0.000000E+00   1.500633E-01   3.162025E-01   6.059951E-01   0.000000E+00
   5   6.276600E-02   0.000000E+00   3.057955E-02   1.133058E-01   1.868936E-01   0.000000E+00
   6   2.014067E-03   0.000000E+00   1.214796E-03   3.486739E-03   5.595863E-03   0.000000E+00
   7   7.208389E-04   0.000000E+00   3.371446E-04   1.215972E-03   1.853635E-05   0.000000E+00
   8   4.338474E-06   0.000000E+00   1.347212E-06   1.393645E-05   2.044516E-03   0.000000E+00
 
:INFO :  Singular value  8.668E+00 Weight  1.000E+00 Projection -6.103E-05
:INFO :  Singular value  4.704E+00 Weight  1.000E+00 Projection  2.158E-04
:INFO :  Singular value  7.404E-01 Weight  1.000E+00 Projection -6.154E-04
:INFO :  Singular value  6.055E-01 Weight  1.000E+00 Projection -4.433E-04
:INFO :  Singular value  1.867E-01 Weight  1.000E+00 Projection  3.949E-04
:INFO :  Singular value  5.599E-03 Weight  9.931E-01 Projection  1.203E-02
:INFO :  Singular value  2.043E-03 Weight  9.505E-01 Projection -1.533E-02
:INFO :  Singular value  1.854E-05 Weight  1.579E-03 Projection  5.119E-05
:RANK :  ACTIVE   6.95/8  =  86.82 % ; YY RANK   6.86/8  =  85.69 %
 
:BLIM :  VZERO Control Off
:TRUST:  Step 2.25E+01  Charge 9.68E-02 (e) CTO  3.43E-01 (e) PW  1.05E+00 (e)
:DIRM :  MEMORY  8/8  SCALE   1.000 RED  0.30 PRED  0.48 NEXT  0.30 
:TRAVE:  Charge 4.67E-03 (e) CTO  1.60E-02 (e) PW  6.48E-02 (e)
:DIRP :  |MSR1|= 7.826E-04 |PRATT|= 7.788E-04 ANGLE=   6.2 DEGREES
:DIRQ :  |MSR1|= 6.157E-04 |PRATT|= 7.061E-04 ANGLE=  16.3 DEGREES
:DIRT :  |MSR1|= 9.958E-04 |PRATT|= 1.051E-03 ANGLE=  12.2 DEGREES
:MIX  :   MSE1   REGULARIZATION:  4.66E-04 GREED: 0.35000  Newton 1.00  0.9473                
     
       CHARGES OF MIXED CHARGE DENSITY
:CTO   : INTERSTITIAL CHARGE =    35.531908
:CPC   : PW Pseudocharge     =   102.716392
:CTO001: CHARGE SPHERE  1    =    79.516690
:CTO002: CHARGE SPHERE  2    =    52.323148
:CTO003: CHARGE SPHERE  3    =    33.759780
:CTO004: CHARGE SPHERE  4    =    33.758702

:NEC03: NUCLEAR AND ELECTRONIC CHARGE    968.00000   968.00000

PW CHANGE     H    K    L      Current       Change    Residue
:PTO001:      0    0    0  2.62975800E-02  5.075E-07  4.795E-07
:PTO006:     -1    0   -1 -2.36699782E-03 -1.158E-07 -1.219E-07
:PTO007:      0    0   -2  2.41470644E-03 -7.603E-07 -9.534E-07
:PTO008:     -1   -1    0  4.59019920E-03 -1.305E-06 -1.686E-06
:PTO009:     -1   -1   -1 -1.04204075E-02 -9.678E-07 -1.027E-06
:PTO012:      0   -2    0  6.72642865E-03  1.255E-06  1.075E-06
:PTO013:     -1   -1   -2  2.09283371E-02  5.676E-06  5.025E-06
:PTO014:     -2    0    0  6.70597689E-03  1.462E-06  1.313E-06
:PTO015:      0   -2   -1  5.68197563E-03  1.213E-06  1.233E-06
:PTO018:     -1   -2    0 -1.03085697E-02  4.001E-07  3.822E-07
:PTO019:     -2   -1    0  1.13180992E-02 -4.489E-07 -4.467E-07
:PTO021:     -1   -2   -1  1.17723609E-02 -6.264E-07 -6.309E-07

:ENE  : ********** TOTAL ENERGY IN Ry =      -292312.84410047

       TOTAL FORCE IN mRy/a.u. = |F|     Fx             Fy             Fz     with/without FOR in case.in2
:FOR001:   1.ATOM          0.000          0.000          0.000          0.000 partial forces
:FOR002:   2.ATOM          0.229         -0.184          0.137          0.000 partial forces
:FOR003:   3.ATOM         25.934         23.594        -10.765          0.000 partial forces
:FOR004:   4.ATOM         35.798        -24.122        -20.053        -17.249 partial forces
       TOTAL FORCE WITH RESPECT TO GLOBAL CARTESIAN COORDINATES:
:FCA001:   1.ATOM                         0.000          0.000          0.000 partial forces
:FCA002:   2.ATOM                        -0.184          0.137          0.000 partial forces
:FCA003:   3.ATOM                        23.594        -10.765          0.000 partial forces
:FCA004:   4.ATOM                       -24.122        -20.053        -17.249 partial forces
       TOTAL FORCE WITH RESPECT TO THE GLOBAL COORDINATE SYSTEM:
:FGL001:   1.ATOM                 0.000000000     0.000000000     0.000000000 partial forces
:FGL002:   2.ATOM                -0.183832868     0.137285502     0.000000000 partial forces
:FGL003:   3.ATOM                23.593657870   -10.765144704     0.000000000 partial forces
:FGL004:   4.ATOM               -24.121620555   -20.052507634   -17.248806522 partial forces
