
:LABEL1: Calculations in /home/cmueller/wien/FZU/src/perovskite/2000k
:LABEL2: on cv036 at Thu Jun 20 06:14:14 PM CEST 2024
:LABEL3: using WIEN2k_19.1 (Release 25/6/2019) in /home/cmueller/WIENROOT
:LABEL4: using the command: run_lapw
 Flat Integration
 New Mode for Coulomb Integral
 Consistent 3/8+Simpson combinations
 Extension of core to zero
 LDM version in phi
 Fifth-order quadrature in outwin


            ---------
:ITE001:  1. ITERATION
            ---------

:NATO :    4 INDEPENDENT AND   20 TOTAL ATOMS IN UNITCELL
       SUBSTANCE: blebleble                                                   

       LATTICE                      = P   
:POT  : POTENTIAL OPTION EX_PBE EC_PBE VX_PBE VC_PBE
:LAT  : LATTICE CONSTANTS= 15.19415 15.66734 22.08372    1.571    1.571    1.571
:VOL  : UNIT CELL VOLUME =    5257.07306
       MODE OF CALCULATION IS       = RELA
       NON-SPINPOLARIZED CALCULATION
:IFFT  : FFT-parameters:  120  120  180 Factor: 2.00


   CONVERGENCE PARAMETER FOR PSEUDOCHARGE: NCON=  9
   MAXIMAL VALUE OF RMT(JATOM)*ABSK(NKK) : RK  =29.99804


:VKCOUL :  VK-COUL convergence: 0.423E-07
       ATOMNUMBER=  1 Pb         VCOUL-ZERO =  0.10897E+00
:EFG001:                        EFG         =     0.00590   *10**21  V / m**2
                               V20  TOT/SRF=     0.00113     0.00195
                               V22  TOT/SRF=    -0.00027    -0.00077
                               V22M TOT/SRF=    -0.00029    -0.00093
                               V21  TOT/SRF=     0.00242     0.00330
                               V21M TOT/SRF=    -0.00473    -0.00516

             -0.00092   -0.00029    0.00242       -0.00105    0.00000    0.00000
             -0.00029   -0.00038   -0.00473        0.00000    0.00590    0.00000
              0.00242   -0.00473    0.00130        0.00000    0.00000   -0.00485

         MAIN DIRECTIONS OF THE EFG   1.0000  0.3879 -0.5274
                                      0.5164 -0.7730  1.0000
                                      0.0112  1.0000  0.9776
:ANG001:  ANGLE WITH OLD X-AXIS =        33.2

:ETA001:                         ASYMM. ETA =     0.64411


       ATOMNUMBER=  2 Cs         VCOUL-ZERO = -0.49697E-01
:EFG002:                        EFG         =     0.00079   *10**21  V / m**2
                               V20  TOT/SRF=    -0.00038    -0.00033
                               V22  TOT/SRF=    -0.00031    -0.00059
                               V22M TOT/SRF=    -0.00049    -0.00143
                               V21  TOT/SRF=     0.00000     0.00000
                               V21M TOT/SRF=     0.00000     0.00000

             -0.00009   -0.00049    0.00000       -0.00036    0.00000    0.00000
             -0.00049    0.00053    0.00000        0.00000    0.00079    0.00000
              0.00000    0.00000   -0.00043        0.00000    0.00000   -0.00043

         MAIN DIRECTIONS OF THE EFG   1.0000 -0.5459  0.0000
                                      0.5459  1.0000  0.0000
                                      0.0000  0.0000  1.0000
:ANG002:  ANGLE WITH OLD X-AXIS =        28.6

:ETA002:                         ASYMM. ETA =     0.09356


       ATOMNUMBER=  3 Br         VCOUL-ZERO =  0.28031E+00
:EFG003:                        EFG         =    -0.02231   *10**21  V / m**2
                               V20  TOT/SRF=     0.01925     0.05961
                               V22  TOT/SRF=     0.00410     0.00562
                               V22M TOT/SRF=    -0.01042    -0.01150
                               V21  TOT/SRF=     0.00000     0.00000
                               V21M TOT/SRF=     0.00000     0.00000

             -0.00702   -0.01042    0.00000        0.00008    0.00000    0.00000
             -0.01042   -0.01521    0.00000        0.00000   -0.02231    0.00000
              0.00000    0.00000    0.02223        0.00000    0.00000    0.02223

         MAIN DIRECTIONS OF THE EFG   1.0000  0.6813  0.0000
                                     -0.6813  1.0000  0.0000
                                      0.0000  0.0000  1.0000
:ANG003:  ANGLE WITH OLD X-AXIS =        34.3

:ETA003:                         ASYMM. ETA =     0.99277


       ATOMNUMBER=  4 Br         VCOUL-ZERO =  0.28025E+00
:EFG004:                        EFG         =     0.02212   *10**21  V / m**2
                               V20  TOT/SRF=    -0.00625    -0.02554
                               V22  TOT/SRF=    -0.00319    -0.00440
                               V22M TOT/SRF=    -0.01622    -0.04902
                               V21  TOT/SRF=    -0.00456    -0.00425
                               V21M TOT/SRF=     0.00611     0.00781

              0.00042   -0.01622   -0.00456        0.02212    0.00000    0.00000
             -0.01622    0.00679    0.00611        0.00000   -0.01296    0.00000
             -0.00456    0.00611   -0.00722        0.00000    0.00000   -0.00916

         MAIN DIRECTIONS OF THE EFG  -0.8182  1.0000  0.2387
                                      1.0000  0.8580 -0.1399
                                      0.3353 -0.1186  1.0000
:ANG004:  ANGLE WITH OLD X-AXIS =       128.5

:ETA004:                         ASYMM. ETA =     0.17181


     HELLMANN-FEYNMAN-FORCE IN mRy/a.u. = |F|  Fx       Fy             Fz
:FHF001:   1.ATOM      0.000000000000      0.000000000000      0.000000000000      0.000000000000

     HELLMANN-FEYNMAN-FORCE IN mRy/a.u. = |F|  Fx       Fy             Fz
:FHF002:   2.ATOM     13.212661606233     13.207363767740      0.374124347533      0.000000000000

     HELLMANN-FEYNMAN-FORCE IN mRy/a.u. = |F|  Fx       Fy             Fz
:FHF003:   3.ATOM    220.113963888524    -93.045637347661   -199.480992751907      0.000000000000

     HELLMANN-FEYNMAN-FORCE IN mRy/a.u. = |F|  Fx       Fy             Fz
:FHF004:   4.ATOM    174.202709980683     55.580955909951    107.026757789216    125.708450876934

:FIT001: LUSE= 13 SIGMA OF V-XC FIT FOR ATOM  1  0.7571362E-03
:FIT001: LUSE= 13 SIGMA OF V-XC FIT FOR ATOM  1  0.7571362E-03
:FIT002: LUSE= 13 SIGMA OF V-XC FIT FOR ATOM  2  0.1645418E-04
:FIT002: LUSE= 13 SIGMA OF V-XC FIT FOR ATOM  2  0.1645418E-04
:FIT003: LUSE= 13 SIGMA OF V-XC FIT FOR ATOM  3  0.7450639E-03
:FIT003: LUSE= 13 SIGMA OF V-XC FIT FOR ATOM  3  0.7450639E-03
:FIT004: LUSE= 13 SIGMA OF V-XC FIT FOR ATOM  4  0.6626845E-03
:FIT004: LUSE= 13 SIGMA OF V-XC FIT FOR ATOM  4  0.6626845E-03
:DEN  : DENSITY INTEGRAL  =       -114061.79163689   (Ry)
       ELS_POTENTIAL_AT Z=0 and Z=0.5:  -0.57564  -0.57564
       ELS_POTENTIAL_AT Y=0 and Y=0.5:  -0.47943  -0.47943
:VZERO:v0,v0c,v0x  -1.32226  -0.57564  -0.74662 v5,v5c,v5x  -1.32226  -0.57564  -0.74662
:VZERY:v0,v0c,v0x  -1.13920  -0.47943  -0.65976 v5,v5c,v5x  -1.13920  -0.47943  -0.65976
:VZERX:v0,v0c,v0x  -1.13400  -0.48141  -0.65258 v5,v5c,v5x  -1.13400  -0.48141  -0.65258
:LMAX-WF:   10   Non-Spherical LMAX:   4

          ATOMIC SPHERE DEPENDENT PARAMETERS FOR ATOM  Pb        
:e__0001: OVERALL ENERGY PARAMETER IS    0.3000
          OVERALL BASIS SET ON ATOM IS LAPW
:E2_0001: E( 2)=    0.7000
             APW+lo
:E2_0001: E( 2)=   -0.9369   E(BOTTOM)=   -1.175   E(TOP)=   -0.699  2  3   123
             LOCAL ORBITAL
:E0_0001: E( 0)=    0.3000
             APW+lo
:E1_0001: E( 1)=    0.3000
             APW+lo

          ATOMIC SPHERE DEPENDENT PARAMETERS FOR ATOM  Cs        
:e__0002: OVERALL ENERGY PARAMETER IS    0.3000
          OVERALL BASIS SET ON ATOM IS LAPW
:E2_0002: E( 2)=    0.3000
             APW+lo
:E2_0002: E( 2)=   -4.8572   E(BOTTOM)=   -4.869   E(TOP)=   -4.846  1  2   120
             LOCAL ORBITAL
:E0_0002: E( 0)=    0.7000
             APW+lo
:E0_0002: E( 0)=   -1.3662   E(BOTTOM)=   -2.049   E(TOP)=   -0.683  4  5   169
             LOCAL ORBITAL
:E1_0002: E( 1)=    0.7000
             APW+lo
:E1_0002: E( 1)=   -0.1934   E(BOTTOM)=   -1.166   E(TOP)=    0.779  3  4   199
             LOCAL ORBITAL

          ATOMIC SPHERE DEPENDENT PARAMETERS FOR ATOM  Br        
:e__0003: OVERALL ENERGY PARAMETER IS    0.3000
          OVERALL BASIS SET ON ATOM IS LAPW
:E2_0003: E( 2)=    0.3000
             APW+lo
:E2_0003: E( 2)=   -4.3424   E(BOTTOM)=   -4.346   E(TOP)=   -4.339  1  1   115
             LOCAL ORBITAL
:E0_0003: E( 0)=    0.7000
             APW+lo
:E0_0003: E( 0)=   -0.9471   E(BOTTOM)=   -1.512   E(TOP)=   -0.382  3  4   158
             LOCAL ORBITAL
:E1_0003: E( 1)=    0.3000
             APW+lo

          ATOMIC SPHERE DEPENDENT PARAMETERS FOR ATOM  Br        
:e__0004: OVERALL ENERGY PARAMETER IS    0.3000
          OVERALL BASIS SET ON ATOM IS LAPW
:E2_0004: E( 2)=    0.3000
             APW+lo
:E2_0004: E( 2)=   -4.3426   E(BOTTOM)=   -4.346   E(TOP)=   -4.339  1  1   119
             LOCAL ORBITAL
:E0_0004: E( 0)=    0.7000
             APW+lo
:E0_0004: E( 0)=   -0.9473   E(BOTTOM)=   -1.512   E(TOP)=   -0.382  3  4   153
             LOCAL ORBITAL
:E1_0004: E( 1)=    0.3000
             APW+lo

       K=   0.03571   0.03846   0.05556            1
:RKM  : MATRIX SIZE  2238LOs: 308  RKM= 7.00  WEIGHT= 8.00  PGR:    
       EIGENVALUES ARE:
:EIG00001:      -4.8544114   -4.8544067   -4.8543963   -4.8543935   -4.8543926
:EIG00006:      -4.8543838   -4.8543814   -4.8543775   -4.8543755   -4.8543657
:EIG00011:      -4.8543612   -4.8543536   -4.8543433   -4.8543383   -4.8543249
:EIG00016:      -4.8543118   -4.8543090   -4.8543085   -4.8542919   -4.8542803
:EIG00021:      -4.3422810   -4.3422734   -4.3422702   -4.3422679   -4.3422645
:EIG00026:      -4.3422637   -4.3422590   -4.3422525   -4.3421715   -4.3421667
:EIG00031:      -4.3421653   -4.3421597   -4.3420070   -4.3420030   -4.3419993
:EIG00036:      -4.3419931   -4.3419893   -4.3419867   -4.3419834   -4.3419727
:EIG00041:      -4.3419532   -4.3419424   -4.3419343   -4.3419290   -4.3419263
:EIG00046:      -4.3419253   -4.3419237   -4.3419164   -4.3419140   -4.3419108
 
:EIG00051:      -4.3419041   -4.3419010   -4.3416391   -4.3416355   -4.3416288
:EIG00056:      -4.3416224   -4.3414992   -4.3414978   -4.3414905   -4.3414901
:EIG00061:      -4.3414810   -4.3414792   -4.3414763   -4.3414707   -4.3414589
:EIG00066:      -4.3414520   -4.3414441   -4.3414406   -4.3414398   -4.3414370
:EIG00071:      -4.3414301   -4.3414290   -4.3413183   -4.3413129   -4.3413088
:EIG00076:      -4.3413041   -4.3412461   -4.3412439   -4.3412396   -4.3412338
:EIG00081:      -1.3724560   -1.3722890   -1.3721036   -1.3719992   -0.9681158
:EIG00086:      -0.9679141   -0.9678767   -0.9676242   -0.9675317   -0.9664006
:EIG00091:      -0.9485156   -0.9482897   -0.9479479   -0.9478477   -0.9475717
:EIG00096:      -0.9471574   -0.9033538   -0.9032657   -0.9029172   -0.8964714
 
:EIG00101:      -0.8963655   -0.8962876   -0.8962024   -0.8961689   -0.8960887
:EIG00106:      -0.8957090   -0.8956729   -0.8955020   -0.8954247   -0.8953316
:EIG00111:      -0.8950876   -0.8929688   -0.8812208   -0.8700341   -0.8697335
:EIG00116:      -0.8692094   -0.4146447   -0.4122786   -0.4118441   -0.4104163
:EIG00121:      -0.4097200   -0.4093252   -0.4089320   -0.4077951   -0.4076228
:EIG00126:      -0.4075359   -0.4070635   -0.4062121   -0.4054236   -0.3659487
:EIG00131:      -0.3252211   -0.2627462   -0.1485501   -0.1479797   -0.1458242
:EIG00136:      -0.1405544   -0.1393094   -0.1300756   -0.0989965   -0.0808935
:EIG00141:      -0.0778625   -0.0765507   -0.0752166   -0.0680005   -0.0586954
:EIG00146:      -0.0536387   -0.0519238   -0.0489787   -0.0462689   -0.0440255
 
:EIG00151:      -0.0423358   -0.0406596   -0.0400048   -0.0386462   -0.0317909
:EIG00156:      -0.0270800   -0.0267093   -0.0261098   -0.0245784   -0.0233591
:EIG00161:      -0.0220964   -0.0200566   -0.0182415   -0.0180685   -0.0003703
:EIG00166:       0.0567078    0.1054314    0.1599021    0.3388889    0.3419871
:EIG00171:       0.3458032    0.3716377    0.3848054    0.4021727    0.4030239
:EIG00176:       0.4827768    0.4886394    0.4963321    0.5004972    0.5318650
:EIG00181:       0.5324427    0.5366161    0.5451767    0.5483478    0.5504999
:EIG00186:       0.5514674    0.5575026    0.5594182    0.5744553    0.5779252
:EIG00191:       0.5791237    0.5853112    0.6009704    0.6045628    0.6068584
:EIG00196:       0.6146543    0.6153150    0.6196932    0.6225087    0.6291892
 
:EIG00201:       0.6365855    0.6415915    0.6513039    0.6580602    0.6601942
:EIG00206:       0.6757210    0.6803283    0.6905873    0.6979210    0.7026209
:EIG00211:       0.7156279    0.7337709    0.7419318    0.7519479    0.7576420
:EIG00216:       0.7600733    0.7621976    0.7677493    0.7784196    0.7870336
:EIG00221:       0.7878121    0.7920910    0.7951455    0.8346617    0.8541051
:EIG00226:       0.8585204    0.8609449    0.8647634    0.8670782    0.8686235
:EIG00231:       0.8725264    0.8830501    0.8957360    0.8975058    0.9087581
:EIG00236:       0.9268631    0.9384580    0.9483408    0.9553887    0.9594113
:EIG00241:       0.9607195    0.9682386    0.9810494    0.9857894    0.9962121
:EIG00246:       0.9982780    1.0121023    1.0145235    1.0168319    1.0194197
 
:EIG00251:       1.0270566    1.0287271    1.0431043    1.0565549    1.0639372
:EIG00256:       1.0730110    1.0814894    1.0875087    1.0893545    1.0918698
:EIG00261:       1.0942199    1.0995024    1.1022372    1.1048068    1.1086168
:EIG00266:       1.1143769    1.1189494    1.1262839    1.1285674    1.1331871
:EIG00271:       1.1354066    1.1407402    1.1461432    1.1491958    1.1583056
:EIG00276:       1.1630877    1.1663367    1.1704034    1.1737316    1.1748881
:EIG00281:       1.1777794    1.1832838    1.1848740    1.1886706    1.1927822
:EIG00286:       1.1935171    1.1989435    1.2038597    1.2146451    1.2208435
:EIG00291:       1.2237231    1.2254222    1.2283086    1.2340577    1.2405475
:EIG00296:       1.2411155    1.2454582    1.2493389    1.2534669    1.2621556
 
:EIG00301:       1.2683644    1.2721503    1.2797955    1.2855009    1.2875807
:EIG00306:       1.2960001    1.3079923    1.3115855    1.3154424    1.3171002
:EIG00311:       1.3227591    1.3302612    1.3418680    1.3429623    1.3573798
:EIG00316:       1.3596720    1.3690051    1.3730894    1.3806286    1.3834613
:EIG00321:       1.3872615    1.3889202    1.4037435    1.4072431    1.4101182
:EIG00326:       1.4192425    1.4221725    1.4315505    1.4341729    1.4360183
:EIG00331:       1.4444915    1.4469382    1.4520094    1.4547293    1.4635749
:EIG00336:       1.4679116    1.4709432    1.4741978    1.4770505    1.4829827
:EIG00341:       1.4880195    1.4910610    1.4974781    1.5004938    1.5012635
:EIG00346:       1.5081866    1.5145170    1.5177749    1.5209809    1.5268211
 
:EIG00351:       1.5308858    1.5323111    1.5411028    1.5440988    1.5519437
:EIG00356:       1.5615671    1.5653991    1.5745158    1.5807302    1.5837608
:EIG00361:       1.5914403    1.5957462    1.6100169    1.6122710    1.6235158
:EIG00366:       1.6289623    1.6358016    1.6380643    1.6431121    1.6551013
:EIG00371:       1.6562710    1.6582509    1.6659809    1.6728551    1.6773298
:EIG00376:       1.6784124    1.6803331    1.6900354    1.6984923    1.7096753
:EIG00381:       1.7101287    1.7159618    1.7205252    1.7251739    1.7265907
:EIG00386:       1.7330022    1.7355201    1.7418645    1.7452206    1.7486103
:EIG00391:       1.7518531    1.7567034    1.7628742    1.7651892    1.7735968
:EIG00396:       1.7750836    1.7851046    1.7914899    1.7941253    1.7962996
 
:EIG00401:       1.8058270    1.8108387    1.8163989    1.8195126    1.8227198
:EIG00406:       1.8280351    1.8289659    1.8362176    1.8375537    1.8421784
:EIG00411:       1.8451417    1.8509398    1.8541889    1.8652673    1.8751458
:EIG00416:       1.8837524    1.8860681    1.8897179    1.8993580    1.9008846
:EIG00421:       1.9025939    1.9080882    1.9128216    1.9147489    1.9214418
:EIG00426:       1.9244135    1.9347247    1.9380940    1.9415654    1.9457507
:EIG00431:       1.9544194    1.9598189    1.9631915    1.9685077    1.9750224
:EIG00436:       1.9828722    1.9876682    1.9911892    1.9984514
       ********************************************************

:KPT   :      NUMBER OF K-POINTS:   245
       Insulator, EF-inconsistency corrected
:GAP (global)   :  0.178987 Ry =     2.435 eV (accurate value if proper k-mesh)
         Bandranges (emin - emax) and occupancy:
:BAN00158: 158   -0.036411   -0.025112  2.00000000
:BAN00159: 159   -0.033369   -0.024578  2.00000000
:BAN00160: 160   -0.033369   -0.023359  2.00000000
:BAN00161: 161   -0.029275   -0.021470  2.00000000
:BAN00162: 162   -0.028497   -0.019274  2.00000000
:BAN00163: 163   -0.023435   -0.013927  2.00000000
:BAN00164: 164   -0.023404   -0.013927  2.00000000
:BAN00165: 165   -0.000370    0.066921  2.00000000
:BAN00166: 166    0.010431    0.070025  2.00000000
:BAN00167: 167    0.043659    0.121312  2.00000000
:BAN00168: 168    0.043659    0.159902  2.00000000
:BAN00169: 169    0.338889    0.442502  0.00000000
:BAN00170: 170    0.341987    0.442502  0.00000000
:BAN00171: 171    0.345803    0.447059  0.00000000
:BAN00172: 172    0.364053    0.447059  0.00000000
:BAN00173: 173    0.381401    0.465416  0.00000000
        Energy to separate low and high energystates:   -0.46464


:NOE  : NUMBER OF ELECTRONS          =  336.000

:FER  : F E R M I - ENERGY(TETRAH.M.)=   0.1599021181
:GMA  : POTENTIAL AND CHARGE CUT-OFF  12.00 Ry**.5

:POS001: ATOM   -1 X,Y,Z = 0.50000 0.50000 0.50000  MULT= 4  ZZ= 82.000  Pb        

       LMMAX 28
       LM=   0 0  2 0  2 1 -2 1  2 2 -2 2  4 0  4 1 -4 1  4 2 -4 2  4 3 -4 3  4 4 -4 4  6 0  6 1
        -6 1  6 2 -6 2  6 3 -6 3  6 4 -6 4  6 5 -6 5  6 6 -6 6

:CHA001: TOTAL VALENCE CHARGE INSIDE SPHERE   1 =  11.3104    (RMT=  2.5000 )
:PCS001: PARTIAL CHARGES SPHERE =  1 S,P,D,F,PX,PY,PZ,D-Z2,D-X2Y2,D-XY,D-XZ,D-YZ 
:QTL001: 1.3301 0.2629 9.7026 0.0124 0.0868 0.0874 0.0887 1.9483 1.9366 1.9470 1.9358 1.9350
        Q-s-low E-s-low   Q-p-low E-p-low   Q-d-low E-d-low   Q-f-low E-f-low
:EPL001:  0.0177 -0.9545    0.0087 -0.9464    9.6271 -0.8979    0.0010 -0.9568
        Q-s-hi  E-s-hi    Q-p-hi  E-p-hi    Q-d-hi  E-d-hi    Q-f-hi  E-f-hi 
:EPH001:  1.3124 -0.2171    0.2542 -0.0907    0.0756 -0.0566    0.0114 -0.0583

                      QXX         QXY         QYY         QZZ       UP TO R
:VZZ001:             0.65371     0.65279     0.16079    -0.81450       2.500

:POS002: ATOM   -2 X,Y,Z = 0.48491 0.94655 0.25000  MULT= 4  ZZ= 55.000  Cs        

       LMMAX 28
       LM=   0 0  1 1 -1 1  2 0  2 2 -2 2  3 1 -3 1  3 3 -3 3  4 0  4 2 -4 2  4 4 -4 4  5 1 -5 1
         5 3 -5 3  5 5 -5 5  6 0  6 2 -6 2  6 4 -6 4  6 6 -6 6

:CHA002: TOTAL VALENCE CHARGE INSIDE SPHERE   2 =  16.2947    (RMT=  2.5000 )
:PCS002: PARTIAL CHARGES SPHERE =  2 S,P,D,F,PX,PY,PZ,D-Z2,D-X2Y2,D-XY,D-XZ,D-YZ 
:QTL002: 1.7960 4.487510.0093 0.0018 1.4951 1.4960 1.4964 2.0014 2.0022 2.0011 2.0019 2.0026
        Q-s-low E-s-low   Q-p-low E-p-low   Q-d-low E-d-low   Q-f-low E-f-low
:EPL002:  1.7865 -1.3718    0.0022 -0.9454    9.9946 -4.8543    0.0001 -1.0167
        Q-s-hi  E-s-hi    Q-p-hi  E-p-hi    Q-d-hi  E-d-hi    Q-f-hi  E-f-hi 
:EPH002:  0.0095 -0.0770    4.4853 -0.3968    0.0147 -0.0520    0.0017 -0.0450

                      QXX         QXY         QYY         QZZ       UP TO R
:VZZ002:             0.54746     1.59480    -0.11871    -0.42875       2.500

:POS003: ATOM   -3 X,Y,Z = 0.56000 0.50750 0.25000  MULT= 4  ZZ= 35.000  Br        

       LMMAX 28
       LM=   0 0  1 1 -1 1  2 0  2 2 -2 2  3 1 -3 1  3 3 -3 3  4 0  4 2 -4 2  4 4 -4 4  5 1 -5 1
         5 3 -5 3  5 5 -5 5  6 0  6 2 -6 2  6 4 -6 4  6 6 -6 6

:CHA003: TOTAL VALENCE CHARGE INSIDE SPHERE   3 =  15.9553    (RMT=  2.5000 )
:PCS003: PARTIAL CHARGES SPHERE =  3 S,P,D,F,PX,PY,PZ,D-Z2,D-X2Y2,D-XY,D-XZ,D-YZ 
:QTL003: 1.7970 4.141310.0141 0.0024 1.3989 1.4027 1.3397 2.0109 2.0004 2.0002 2.0017 2.0009
        Q-s-low E-s-low   Q-p-low E-p-low   Q-d-low E-d-low   Q-f-low E-f-low
:EPL003:  1.7662 -0.9479    0.0063 -0.9020   10.0001 -4.3411    0.0006 -0.9116
        Q-s-hi  E-s-hi    Q-p-hi  E-p-hi    Q-d-hi  E-d-hi    Q-f-hi  E-f-hi 
:EPH003:  0.0308 -0.2384    4.1350 -0.0589    0.0140 -0.1100    0.0018 -0.1584

                      QXX         QXY         QYY         QZZ       UP TO R
:VZZ003:            -5.13940    -0.36328    -6.35672    11.49611       2.500

:POS004: ATOM   -4 X,Y,Z = 0.19962 0.70227 0.46752  MULT= 8  ZZ= 35.000  Br        

       LMMAX 49

:CHA004: TOTAL VALENCE CHARGE INSIDE SPHERE   4 =  15.9560    (RMT=  2.5000 )
:PCS004: PARTIAL CHARGES SPHERE =  4 S,P,D,F,PX,PY,PZ,D-Z2,D-X2Y2,D-XY,D-XZ,D-YZ 
:QTL004: 1.7968 4.142710.0137 0.0024 1.3729 1.3699 1.3999 2.0027 2.0019 2.0073 2.0008 2.0009
        Q-s-low E-s-low   Q-p-low E-p-low   Q-d-low E-d-low   Q-f-low E-f-low
:EPL004:  1.7666 -0.9479    0.0061 -0.9008   10.0000 -4.3413    0.0006 -0.9143
        Q-s-hi  E-s-hi    Q-p-hi  E-p-hi    Q-d-hi  E-d-hi    Q-f-hi  E-f-hi 
:EPH004:  0.0301 -0.2387    4.1366 -0.0590    0.0136 -0.1123    0.0018 -0.1531

                      QXX         QXY         QYY         QZZ       UP TO R
:VZZ004:             2.16542    -8.20702     3.11554    -5.28096       2.500

:CHA  : TOTAL VALENCE CHARGE INSIDE UNIT CELL =     336.000000

:SUM  : SUM OF EIGENVALUES =        -800.985411557


        1.ATOM      Pb                   19 CORE STATES
:1S 001: 1S               -6465.856478861 Ry
:2S 001: 2S               -1154.903306790 Ry
:2PP001: 2P*              -1108.893817011 Ry
:2P 001: 2P                -947.935173972 Ry
:3S 001: 3S                -276.693360124 Ry
:3PP001: 3P*               -255.968010997 Ry
:3P 001: 3P                -220.054280836 Ry
:3DD001: 3D*               -186.062537820 Ry
:3D 001: 3D                -178.422247597 Ry
:4S 001: 4S                 -62.128808944 Ry
:4PP001: 4P*                -53.163996678 Ry
:4P 001: 4P                 -44.373404565 Ry
:4DD001: 4D*                -29.792605091 Ry
:4D 001: 4D                 -28.152442018 Ry
:5S 001: 5S                  -9.904885030 Ry
:5PP001: 5P*                 -6.849845520 Ry
:5P 001: 5P                  -5.208607376 Ry
:4FF001: 4F*                 -9.280070916 Ry
:4F 001: 4F                  -8.910355399 Ry

        2.ATOM      Cs                   12 CORE STATES
       CORE-FORCE in mRy/a.u. = |F|      Fx             Fy             Fz
:FCO002:   2.ATOM      8.842542940986     -8.835064566040     -0.363592872713      0.000000000000

:1S 002: 1S               -2628.589836052 Ry
:2S 002: 2S                -411.663315835 Ry
:2PP002: 2P*               -387.226059542 Ry
:2P 002: 2P                -361.334303543 Ry
:3S 002: 3S                 -85.113558932 Ry
:3PP002: 3P*                -74.910137637 Ry
:3P 002: 3P                 -69.948285401 Ry
:3DD002: 3D*                -52.028973622 Ry
:3D 002: 3D                 -50.975649671 Ry
:4S 002: 4S                 -15.579493186 Ry
:4PP002: 4P*                -11.918652724 Ry
:4P 002: 4P                 -10.906723180 Ry

        3.ATOM      Br                    7 CORE STATES
       CORE-FORCE in mRy/a.u. = |F|      Fx             Fy             Fz
:FCO003:   3.ATOM    113.798211866841     46.855090037281    103.704549377974      0.000000000000

:1S 003: 1S                -977.960077086 Ry
:2S 003: 2S                -126.757186875 Ry
:2PP003: 2P*               -114.087264181 Ry
:2P 003: 2P                -110.595877631 Ry
:3S 003: 3S                 -16.930995736 Ry
:3PP003: 3P*                -12.526450390 Ry
:3P 003: 3P                 -12.024239283 Ry

        4.ATOM      Br                    7 CORE STATES
       CORE-FORCE in mRy/a.u. = |F|      Fx             Fy             Fz
:FCO004:   4.ATOM     88.726814992281    -27.631481055139    -54.539348517191    -64.299365601025

:1S 004: 1S                -977.960247445 Ry
:2S 004: 2S                -126.757357083 Ry
:2PP004: 2P*               -114.087434426 Ry
:2P 004: 2P                -110.596047870 Ry
:3S 004: 3S                 -16.931164448 Ry
:3PP004: 3P*                -12.526618974 Ry
:3P 004: 3P                 -12.024407776 Ry
:CINT001 Core Integral Atom   1   67.995039
:CINT002 Core Integral Atom   2   35.999909
:CINT003 Core Integral Atom   3   17.999989
:CINT004 Core Integral Atom   4   17.999989

       DENSITY AT NUCLEUS
        JATOM        VALENCE       SEMI-CORE          CORE           TOTAL
:RTO001:   1     1927.878758        0.000000  9911349.920423  9913277.799181
:RTO002:   2      320.878676        0.000000   438170.878700   438491.757376
:RTO003:   3       73.645527        0.000000    45839.135817    45912.781344
:RTO004:   4       73.629450        0.000000    45839.135906    45912.765356
     
       CHARGES OF NEW CHARGE DENSITY
:NTO   : INTERSTITIAL CHARGE =    34.110562
:NPC   : PW Pseudocharge     =   103.142822
:NTO001: CHARGE SPHERE  1    =    79.305397
:NTO002: CHARGE SPHERE  2    =    52.294592
:NTO003: CHARGE SPHERE  3    =    33.955309
:NTO004: CHARGE SPHERE  4    =    33.955984

:NEC01: NUCLEAR AND ELECTRONIC CHARGE    968.00000   967.97963
     
       CHARGES OF OLD CHARGE DENSITY
:OTO   : INTERSTITIAL CHARGE =    36.640811
:OPC   : PW Pseudocharge     =   131.400719
:OTO001: CHARGE SPHERE  1    =    79.809567
:OTO002: CHARGE SPHERE  2    =    52.317982
:OTO003: CHARGE SPHERE  3    =    33.573161
:OTO004: CHARGE SPHERE  4    =    33.572536

:NEC02: NUCLEAR AND ELECTRONIC CHARGE    968.00000   968.02394
     
       CONVERGENCE TEST
:DTO001: DIFFERENCE IN SPHERE  1 =  0.2619579
:DTO002: DIFFERENCE IN SPHERE  2 =  0.0742550
:DTO003: DIFFERENCE IN SPHERE  3 =  0.1900926
:DTO004: DIFFERENCE IN SPHERE  4 =  0.1907624

:DIS  :  CHARGE DISTANCE       ( 0.2619579 for atom    1 spin 1)      0.1815660
 PW Mixed is         2247
 
******************************************************
* MULTISECANT MIXING VER9 RELEASE 10.4.0              *
* Standard Mode with controls                        *
* Fixed density scale                                *
* Regularization       1.000E-04                     *
* Trust Upper Limit    5.000E+00                     *
* Max Number of Memory Steps    8                    *
******************************************************
 
:PWTMP   3.9481E+03  2.5000E+03  5.2571E+03
:PLANE:  PW TOTAL     10.8628 DISTAN   3.49E+00  3.21E+01 %
:CHARG:  CLM/ATOM   1115.9684 DISTAN   2.17E-01  1.94E-02 %
 
Step History
        DMIX         DMIXT        Red     Pred      Trust     Lambda    MagRel    MagAbs     Beta
  1   3.5000E-02   3.5000E-02 -1.00E+00  1.00E+00 -1.00E+01  1.00E+00  3.50E-02  3.50E-02  1.00E+00
:INFO :  Note, Pratt in use
:TRUST:  Step 3.75E-02  Charge 7.50E-02 (e) CTO  4.43E-01 (e) PW  6.21E-01 (e)
:DIRM :  MEMORY  0/ 8 SCALE   1.000
Performing Pseudo Compensation
Final Pseudo Compensation Rescaling     1.00017E+00
:MIX  :   PRATT  REGULARIZATION:  1.00E-04 GREED: 0.02500                  
     
       CHARGES OF MIXED CHARGE DENSITY
:CTO   : INTERSTITIAL CHARGE =    36.554718
:CPC   : PW Pseudocharge     =   113.536283
:CTO001: CHARGE SPHERE  1    =    79.796963
:CTO002: CHARGE SPHERE  2    =    52.317397
:CTO003: CHARGE SPHERE  3    =    33.582715
:CTO004: CHARGE SPHERE  4    =    33.582123

:NEC03: NUCLEAR AND ELECTRONIC CHARGE    968.00000   968.00000

PW CHANGE     H    K    L      Current       Change    Residue
:PTO001:      0    0    0  2.85502978E-02 -3.394E-03 -5.820E-03
:PTO006:     -1    0   -1 -2.51630669E-03  2.686E-04  3.934E-04
:PTO007:      0    0   -2  3.54021166E-03 -1.918E-03 -3.357E-03
:PTO008:     -1   -1    0  6.73964900E-03 -3.962E-03 -6.792E-03
:PTO009:     -1   -1   -1 -1.09892035E-02  1.548E-03  2.191E-03
:PTO012:      0   -2    0  8.00613693E-03 -3.039E-03 -4.732E-03
:PTO013:     -1   -1   -2  2.58153784E-02 -1.152E-02 -1.846E-02
:PTO014:     -2    0    0  7.95696009E-03 -3.092E-03 -4.793E-03
:PTO015:      0   -2   -1  6.10833536E-03 -1.114E-03 -1.748E-03
:PTO018:     -1   -2    0 -1.09999210E-02  1.244E-03  1.562E-03
:PTO019:     -2   -1    0  1.21013351E-02 -1.400E-03 -1.765E-03
:PTO021:     -1   -2   -1  1.26270425E-02 -1.485E-03 -1.878E-03

:ENE  : ********** TOTAL ENERGY IN Ry =      -292313.14250692

       TOTAL FORCE IN mRy/a.u. = |F|     Fx             Fy             Fz     with/without FOR in case.in2
:FOR001:   1.ATOM          0.000          0.000          0.000          0.000 partial forces
:FOR002:   2.ATOM          4.372          4.372          0.011          0.000 partial forces
:FOR003:   3.ATOM        106.333        -46.191        -95.776          0.000 partial forces
:FOR004:   4.ATOM         85.482         27.949         52.487         61.409 partial forces
       TOTAL FORCE WITH RESPECT TO GLOBAL CARTESIAN COORDINATES:
:FCA001:   1.ATOM                         0.000          0.000          0.000 partial forces
:FCA002:   2.ATOM                         4.372          0.011          0.000 partial forces
:FCA003:   3.ATOM                       -46.191        -95.776          0.000 partial forces
:FCA004:   4.ATOM                        27.949         52.487         61.409 partial forces
       TOTAL FORCE WITH RESPECT TO THE GLOBAL COORDINATE SYSTEM:
:FGL001:   1.ATOM                 0.000000000     0.000000000     0.000000000 partial forces
:FGL002:   2.ATOM                 4.372299202     0.010531475     0.000000000 partial forces
:FGL003:   3.ATOM               -46.190547310   -95.776443374     0.000000000 partial forces
:FGL004:   4.ATOM                27.949474855    52.487409272    61.409085276 partial forces
 Flat Integration
 New Mode for Coulomb Integral
 Consistent 3/8+Simpson combinations
 Extension of core to zero
 LDM version in phi
 Fifth-order quadrature in outwin


            ---------
:ITE002:  2. ITERATION
            ---------

:NATO :    4 INDEPENDENT AND   20 TOTAL ATOMS IN UNITCELL
       SUBSTANCE: blebleble                                                   

       LATTICE                      = P   
:POT  : POTENTIAL OPTION EX_PBE EC_PBE VX_PBE VC_PBE
:LAT  : LATTICE CONSTANTS= 15.19415 15.66734 22.08372    1.571    1.571    1.571
:VOL  : UNIT CELL VOLUME =    5257.07306
       MODE OF CALCULATION IS       = RELA
       NON-SPINPOLARIZED CALCULATION
:IFFT  : FFT-parameters:  120  120  180 Factor: 2.00


   CONVERGENCE PARAMETER FOR PSEUDOCHARGE: NCON=  9
   MAXIMAL VALUE OF RMT(JATOM)*ABSK(NKK) : RK  =29.99804


:VKCOUL :  VK-COUL convergence: 0.235E-08
       ATOMNUMBER=  1 Pb         VCOUL-ZERO =  0.95796E-01
:EFG001:                        EFG         =     0.02830   *10**21  V / m**2
                               V20  TOT/SRF=    -0.01647     0.00190
                               V22  TOT/SRF=     0.00589    -0.00072
                               V22M TOT/SRF=     0.01603    -0.00085
                               V21  TOT/SRF=    -0.00656     0.00318
                               V21M TOT/SRF=    -0.00633    -0.00511

              0.01540    0.01603   -0.00656        0.02830    0.00000    0.00000
              0.01603    0.00361   -0.00633        0.00000   -0.00743    0.00000
             -0.00656   -0.00633   -0.01901        0.00000    0.00000   -0.02088

         MAIN DIRECTIONS OF THE EFG   1.0000 -0.7393  0.0935
                                      0.7093  1.0000  0.1974
                                     -0.2335 -0.1283  1.0000
:ANG001:  ANGLE WITH OLD X-AXIS =        36.7

:ETA001:                         ASYMM. ETA =     0.47525


       ATOMNUMBER=  2 Cs         VCOUL-ZERO = -0.57641E-01
:EFG002:                        EFG         =     0.04608   *10**21  V / m**2
                               V20  TOT/SRF=    -0.00975    -0.00042
                               V22  TOT/SRF=     0.00806    -0.00052
                               V22M TOT/SRF=     0.03964    -0.00110
                               V21  TOT/SRF=     0.00000     0.00000
                               V21M TOT/SRF=     0.00000     0.00000

              0.01369    0.03964    0.00000        0.04608    0.00000    0.00000
              0.03964   -0.00243    0.00000        0.00000   -0.03482    0.00000
              0.00000    0.00000   -0.01125        0.00000    0.00000   -0.01125

         MAIN DIRECTIONS OF THE EFG   1.0000 -0.8171  0.0000
                                      0.8171  1.0000  0.0000
                                      0.0000  0.0000  1.0000
:ANG002:  ANGLE WITH OLD X-AXIS =        39.3

:ETA002:                         ASYMM. ETA =     0.51151


       ATOMNUMBER=  3 Br         VCOUL-ZERO =  0.27407E+00
:EFG003:                        EFG         =     0.31479   *10**21  V / m**2
                               V20  TOT/SRF=     0.27262     0.06293
                               V22  TOT/SRF=     0.01944     0.00570
                               V22M TOT/SRF=    -0.01946    -0.01138
                               V21  TOT/SRF=     0.00000     0.00000
                               V21M TOT/SRF=     0.00000     0.00000

             -0.13795   -0.01946    0.00000       -0.12988    0.00000    0.00000
             -0.01946   -0.17684    0.00000        0.00000   -0.18491    0.00000
              0.00000    0.00000    0.31479        0.00000    0.00000    0.31479

         MAIN DIRECTIONS OF THE EFG   1.0000  0.4145  0.0000
                                     -0.4145  1.0000  0.0000
                                      0.0000  0.0000  1.0000
:ANG003:  ANGLE WITH OLD X-AXIS =        22.5

:ETA003:                         ASYMM. ETA =     0.17478


       ATOMNUMBER=  4 Br         VCOUL-ZERO =  0.27410E+00
:EFG004:                        EFG         =     0.29764   *10**21  V / m**2
                               V20  TOT/SRF=    -0.12276    -0.02716
                               V22  TOT/SRF=    -0.01519    -0.00448
                               V22M TOT/SRF=    -0.22509    -0.05178
                               V21  TOT/SRF=    -0.02584    -0.00411
                               V21M TOT/SRF=     0.00676     0.00786

              0.05569   -0.22509   -0.02584        0.29764    0.00000    0.00000
             -0.22509    0.08606    0.00676        0.00000   -0.16424    0.00000
             -0.02584    0.00676   -0.14175        0.00000    0.00000   -0.13340

         MAIN DIRECTIONS OF THE EFG  -0.9378  1.0000 -0.4524
                                      1.0000  0.8754 -0.4949
                                      0.0705  0.8856  1.0000
:ANG004:  ANGLE WITH OLD X-AXIS =       130.5

:ETA004:                         ASYMM. ETA =     0.10359


     HELLMANN-FEYNMAN-FORCE IN mRy/a.u. = |F|  Fx       Fy             Fz
:FHF001:   1.ATOM      0.000000000000      0.000000000000      0.000000000000      0.000000000000

     HELLMANN-FEYNMAN-FORCE IN mRy/a.u. = |F|  Fx       Fy             Fz
:FHF002:   2.ATOM     12.777219073919     12.676903866378      1.597947316256      0.000000000000

     HELLMANN-FEYNMAN-FORCE IN mRy/a.u. = |F|  Fx       Fy             Fz
:FHF003:   3.ATOM    205.810457373720    -81.078414879937   -189.167214402857      0.000000000000

     HELLMANN-FEYNMAN-FORCE IN mRy/a.u. = |F|  Fx       Fy             Fz
:FHF004:   4.ATOM    153.717905880989     45.233465170954     94.396716037150    112.571702565371

:FIT001: LUSE= 13 SIGMA OF V-XC FIT FOR ATOM  1  0.7699675E-03
:FIT001: LUSE= 13 SIGMA OF V-XC FIT FOR ATOM  1  0.7699675E-03
:FIT002: LUSE= 13 SIGMA OF V-XC FIT FOR ATOM  2  0.1706835E-04
:FIT002: LUSE= 13 SIGMA OF V-XC FIT FOR ATOM  2  0.1706835E-04
:FIT003: LUSE= 13 SIGMA OF V-XC FIT FOR ATOM  3  0.7195903E-03
:FIT003: LUSE= 13 SIGMA OF V-XC FIT FOR ATOM  3  0.7195903E-03
:FIT004: LUSE= 13 SIGMA OF V-XC FIT FOR ATOM  4  0.6397586E-03
:FIT004: LUSE= 13 SIGMA OF V-XC FIT FOR ATOM  4  0.6397586E-03
:DEN  : DENSITY INTEGRAL  =       -114052.97335255   (Ry)
       ELS_POTENTIAL_AT Z=0 and Z=0.5:  -0.54399  -0.54399
       ELS_POTENTIAL_AT Y=0 and Y=0.5:  -0.45460  -0.45460
:VZERO:v0,v0c,v0x  -1.26511  -0.54399  -0.72112 v5,v5c,v5x  -1.26511  -0.54399  -0.72112
:VZERY:v0,v0c,v0x  -1.09371  -0.45460  -0.63912 v5,v5c,v5x  -1.09371  -0.45460  -0.63912
:VZERX:v0,v0c,v0x  -1.08667  -0.45418  -0.63249 v5,v5c,v5x  -1.08667  -0.45418  -0.63249
:LMAX-WF:   10   Non-Spherical LMAX:   4

          ATOMIC SPHERE DEPENDENT PARAMETERS FOR ATOM  Pb        
:e__0001: OVERALL ENERGY PARAMETER IS    0.1000
          OVERALL BASIS SET ON ATOM IS LAPW
:E2_0001: E( 2)=    0.5000
             APW+lo
:E2_0001: E( 2)=   -0.9530   E(BOTTOM)=   -1.190   E(TOP)=   -0.716  2  3   124
             LOCAL ORBITAL
:E0_0001: E( 0)=    0.1000
             APW+lo
:E1_0001: E( 1)=    0.1000
             APW+lo

          ATOMIC SPHERE DEPENDENT PARAMETERS FOR ATOM  Cs        
:e__0002: OVERALL ENERGY PARAMETER IS    0.1000
          OVERALL BASIS SET ON ATOM IS LAPW
:E2_0002: E( 2)=    0.1000
             APW+lo
:E2_0002: E( 2)=   -4.8658   E(BOTTOM)=   -4.877   E(TOP)=   -4.854  1  2   116
             LOCAL ORBITAL
:E0_0002: E( 0)=    0.5000
             APW+lo
:E0_0002: E( 0)=   -1.3744   E(BOTTOM)=   -2.057   E(TOP)=   -0.692  4  5   169
             LOCAL ORBITAL
:E1_0002: E( 1)=    0.5000
             APW+lo
:E1_0002: E( 1)=   -0.2016   E(BOTTOM)=   -1.174   E(TOP)=    0.771  3  4   198
             LOCAL ORBITAL

          ATOMIC SPHERE DEPENDENT PARAMETERS FOR ATOM  Br        
:e__0003: OVERALL ENERGY PARAMETER IS    0.1000
          OVERALL BASIS SET ON ATOM IS LAPW
:E2_0003: E( 2)=    0.1000
             APW+lo
:E2_0003: E( 2)=   -4.3446   E(BOTTOM)=   -4.348   E(TOP)=   -4.341  1  1   120
             LOCAL ORBITAL
:E0_0003: E( 0)=    0.5000
             APW+lo
:E0_0003: E( 0)=   -0.9512   E(BOTTOM)=   -1.517   E(TOP)=   -0.386  3  4   157
             LOCAL ORBITAL
:E1_0003: E( 1)=    0.1000
             APW+lo

          ATOMIC SPHERE DEPENDENT PARAMETERS FOR ATOM  Br        
:e__0004: OVERALL ENERGY PARAMETER IS    0.1000
          OVERALL BASIS SET ON ATOM IS LAPW
:E2_0004: E( 2)=    0.1000
             APW+lo
:E2_0004: E( 2)=   -4.3446   E(BOTTOM)=   -4.348   E(TOP)=   -4.341  1  1   123
             LOCAL ORBITAL
:E0_0004: E( 0)=    0.5000
             APW+lo
:E0_0004: E( 0)=   -0.9513   E(BOTTOM)=   -1.517   E(TOP)=   -0.386  3  4   154
             LOCAL ORBITAL
:E1_0004: E( 1)=    0.1000
             APW+lo

       K=   0.03571   0.03846   0.05556            1
:RKM  : MATRIX SIZE  2238LOs: 308  RKM= 7.00  WEIGHT= 8.00  PGR:    
       EIGENVALUES ARE:
:EIG00001:      -4.8629786   -4.8629722   -4.8629615   -4.8629595   -4.8629550
:EIG00006:      -4.8629525   -4.8629470   -4.8629441   -4.8629373   -4.8629349
:EIG00011:      -4.8629305   -4.8629272   -4.8629184   -4.8629091   -4.8629011
:EIG00016:      -4.8628884   -4.8628841   -4.8628738   -4.8628577   -4.8628508
:EIG00021:      -4.3444363   -4.3444285   -4.3444263   -4.3444250   -4.3444243
:EIG00026:      -4.3444210   -4.3444173   -4.3444162   -4.3444139   -4.3444110
:EIG00031:      -4.3444079   -4.3444034   -4.3441503   -4.3441363   -4.3441331
:EIG00036:      -4.3441309   -4.3441094   -4.3441019   -4.3440996   -4.3440947
:EIG00041:      -4.3440909   -4.3440883   -4.3440853   -4.3440738   -4.3440497
:EIG00046:      -4.3440438   -4.3440326   -4.3440235   -4.3440183   -4.3440156
 
:EIG00051:      -4.3440102   -4.3440061   -4.3438553   -4.3438508   -4.3438453
:EIG00056:      -4.3438378   -4.3434752   -4.3434750   -4.3434668   -4.3434661
:EIG00061:      -4.3434568   -4.3434551   -4.3434521   -4.3434473   -4.3434357
:EIG00066:      -4.3434269   -4.3434194   -4.3434160   -4.3434154   -4.3434128
:EIG00071:      -4.3434064   -4.3434038   -4.3433895   -4.3433841   -4.3433803
:EIG00076:      -4.3433754   -4.3433243   -4.3433224   -4.3433181   -4.3433121
:EIG00081:      -1.3805902   -1.3804261   -1.3802423   -1.3801388   -0.9761172
:EIG00086:      -0.9758489   -0.9757880   -0.9748047   -0.9736627   -0.9709641
:EIG00091:      -0.9527688   -0.9526117   -0.9523320   -0.9520951   -0.9517740
:EIG00096:      -0.9513411   -0.9194457   -0.9193172   -0.9189104   -0.9127551
 
:EIG00101:      -0.9126515   -0.9125721   -0.9124892   -0.9124473   -0.9123739
:EIG00106:      -0.9119924   -0.9119601   -0.9118008   -0.9117202   -0.9116256
:EIG00111:      -0.9113778   -0.9074937   -0.8945068   -0.8823451   -0.8820764
:EIG00116:      -0.8815616   -0.4225187   -0.4208209   -0.4201438   -0.4195530
:EIG00121:      -0.4179702   -0.4175432   -0.4172868   -0.4157458   -0.4157128
:EIG00126:      -0.4154949   -0.4151041   -0.4142561   -0.4133125   -0.3777055
:EIG00131:      -0.3373365   -0.2758368   -0.1552125   -0.1547371   -0.1525741
:EIG00136:      -0.1472183   -0.1459660   -0.1369787   -0.1039852   -0.0859619
:EIG00141:      -0.0828608   -0.0815924   -0.0802805   -0.0730319   -0.0637237
:EIG00146:      -0.0583259   -0.0566661   -0.0536777   -0.0511113   -0.0488251
 
:EIG00151:      -0.0470110   -0.0452947   -0.0447875   -0.0434739   -0.0366128
:EIG00156:      -0.0324599   -0.0321133   -0.0317266   -0.0293484   -0.0281050
:EIG00161:      -0.0268128   -0.0245391   -0.0228184   -0.0225197   -0.0052992
:EIG00166:       0.0493183    0.0975472    0.1515147    0.3284576    0.3314696
:EIG00171:       0.3354929    0.3610869    0.3741857    0.3917607    0.3960379
:EIG00176:       0.4760694    0.4820707    0.4891902    0.4936258    0.5235954
:EIG00181:       0.5246590    0.5293142    0.5369132    0.5409570    0.5419633
:EIG00186:       0.5442356    0.5503234    0.5525711    0.5662072    0.5701957
:EIG00191:       0.5723182    0.5785687    0.5929375    0.5954792    0.5989207
:EIG00196:       0.6054873    0.6074882    0.6120681    0.6138595    0.6223131
 
:EIG00201:       0.6291704    0.6334090    0.6439018    0.6506360    0.6529007
:EIG00206:       0.6686774    0.6731477    0.6837636    0.6904515    0.6958630
:EIG00211:       0.7087403    0.7267336    0.7349535    0.7453791    0.7509645
:EIG00216:       0.7530045    0.7555046    0.7610029    0.7718055    0.7804052
:EIG00221:       0.7812414    0.7856404    0.7882859    0.8276712    0.8474716
:EIG00226:       0.8518402    0.8539589    0.8580768    0.8604553    0.8616267
:EIG00231:       0.8656612    0.8763759    0.8887834    0.8903456    0.9023463
:EIG00236:       0.9204097    0.9316724    0.9415936    0.9488486    0.9528540
:EIG00241:       0.9542823    0.9615441    0.9750661    0.9786167    0.9894380
:EIG00246:       0.9913036    1.0049233    1.0086214    1.0103277    1.0135244
 
:EIG00251:       1.0202781    1.0220394    1.0369762    1.0502534    1.0578782
:EIG00256:       1.0666772    1.0765067    1.0817285    1.0838465    1.0869258
:EIG00261:       1.0887237    1.0948462    1.0979313    1.0996002    1.1039557
:EIG00266:       1.1097084    1.1138305    1.1210153    1.1233073    1.1282248
:EIG00271:       1.1301022    1.1358945    1.1416453    1.1447662    1.1527805
:EIG00276:       1.1580953    1.1614510    1.1652953    1.1688615    1.1694574
:EIG00281:       1.1732821    1.1782375    1.1805014    1.1845245    1.1872701
:EIG00286:       1.1884947    1.1942021    1.1995272    1.2120904    1.2171783
:EIG00291:       1.2205315    1.2215927    1.2247346    1.2304692    1.2362220
:EIG00296:       1.2381128    1.2425760    1.2459165    1.2516630    1.2567245
 
:EIG00301:       1.2642503    1.2682043    1.2763050    1.2813431    1.2832524
:EIG00306:       1.2932345    1.3039233    1.3082489    1.3123931    1.3140063
:EIG00311:       1.3177705    1.3335807    1.3379186    1.3417156    1.3527523
:EIG00316:       1.3599750    1.3663103    1.3718923    1.3776103    1.3844533
:EIG00321:       1.3845040    1.3897096    1.4027727    1.4073927    1.4110844
:EIG00326:       1.4230014    1.4278549    1.4299339    1.4343334    1.4369675
:EIG00331:       1.4442540    1.4448722    1.4494101    1.4540542    1.4635362
:EIG00336:       1.4650965    1.4705702    1.4737892    1.4787420    1.4834307
:EIG00341:       1.4886496    1.4934467    1.4997462    1.5018196    1.5028055
:EIG00346:       1.5111206    1.5159441    1.5182697    1.5208912    1.5261368
 
:EIG00351:       1.5310775    1.5357533    1.5435109    1.5454546    1.5489473
:EIG00356:       1.5602554    1.5628659    1.5722521    1.5789554    1.5811384
:EIG00361:       1.5866842    1.5947479    1.6096528    1.6107442    1.6252596
:EIG00366:       1.6274894    1.6351478    1.6378206    1.6448891    1.6531242
:EIG00371:       1.6543231    1.6581117    1.6637848    1.6714169    1.6760124
:EIG00376:       1.6769481    1.6814288    1.6851984    1.6944326    1.7071542
:EIG00381:       1.7092595    1.7119490    1.7204285    1.7225338    1.7236299
:EIG00386:       1.7310275    1.7332800    1.7371049    1.7427361    1.7456406
:EIG00391:       1.7506964    1.7539809    1.7634637    1.7659359    1.7715229
:EIG00396:       1.7769804    1.7855566    1.7896746    1.7928320    1.7957744
 
       ********************************************************

:KPT   :      NUMBER OF K-POINTS:   245
       Insulator, EF-inconsistency corrected
:GAP (global)   :  0.176943 Ry =     2.407 eV (accurate value if proper k-mesh)
         Bandranges (emin - emax) and occupancy:
:BAN00158: 158   -0.041089   -0.029806  2.00000000
:BAN00159: 159   -0.038183   -0.029348  2.00000000
:BAN00160: 160   -0.038183   -0.028105  2.00000000
:BAN00161: 161   -0.034030   -0.026150  2.00000000
:BAN00162: 162   -0.033564   -0.023758  2.00000000
:BAN00163: 163   -0.028173   -0.018461  2.00000000
:BAN00164: 164   -0.028173   -0.018461  2.00000000
:BAN00165: 165   -0.005299    0.059209  2.00000000
:BAN00166: 166    0.004378    0.062314  2.00000000
:BAN00167: 167    0.035875    0.113070  2.00000000
:BAN00168: 168    0.035875    0.151515  2.00000000
:BAN00169: 169    0.328458    0.433651  0.00000000
:BAN00170: 170    0.331470    0.433651  0.00000000
:BAN00171: 171    0.335493    0.438194  0.00000000
:BAN00172: 172    0.353653    0.438194  0.00000000
:BAN00173: 173    0.371076    0.455901  0.00000000
        Energy to separate low and high energystates:   -0.47252


:NOE  : NUMBER OF ELECTRONS          =  336.000

:FER  : F E R M I - ENERGY(TETRAH.M.)=   0.1515146656
:GMA  : POTENTIAL AND CHARGE CUT-OFF  12.00 Ry**.5

:POS001: ATOM   -1 X,Y,Z = 0.50000 0.50000 0.50000  MULT= 4  ZZ= 82.000  Pb        

       LMMAX 28
       LM=   0 0  2 0  2 1 -2 1  2 2 -2 2  4 0  4 1 -4 1  4 2 -4 2  4 3 -4 3  4 4 -4 4  6 0  6 1
        -6 1  6 2 -6 2  6 3 -6 3  6 4 -6 4  6 5 -6 5  6 6 -6 6

:CHA001: TOTAL VALENCE CHARGE INSIDE SPHERE   1 =  11.3206    (RMT=  2.5000 )
:PCS001: PARTIAL CHARGES SPHERE =  1 S,P,D,F,PX,PY,PZ,D-Z2,D-X2Y2,D-XY,D-XZ,D-YZ 
:QTL001: 1.3321 0.2694 9.7043 0.0125 0.0890 0.0896 0.0908 1.9487 1.9369 1.9473 1.9361 1.9353
        Q-s-low E-s-low   Q-p-low E-p-low   Q-d-low E-d-low   Q-f-low E-f-low
:EPL001:  0.0183 -0.9591    0.0089 -0.9507    9.6292 -0.9141    0.0010 -0.9607
        Q-s-hi  E-s-hi    Q-p-hi  E-p-hi    Q-d-hi  E-d-hi    Q-f-hi  E-f-hi 
:EPH001:  1.3137 -0.2311    0.2606 -0.0974    0.0750 -0.0621    0.0115 -0.0638

                      QXX         QXY         QYY         QZZ       UP TO R
:VZZ001:             0.65284     0.66617     0.14486    -0.79770       2.500

:POS002: ATOM   -2 X,Y,Z = 0.48491 0.94655 0.25000  MULT= 4  ZZ= 55.000  Cs        

       LMMAX 28
       LM=   0 0  1 1 -1 1  2 0  2 2 -2 2  3 1 -3 1  3 3 -3 3  4 0  4 2 -4 2  4 4 -4 4  5 1 -5 1
         5 3 -5 3  5 5 -5 5  6 0  6 2 -6 2  6 4 -6 4  6 6 -6 6

:CHA002: TOTAL VALENCE CHARGE INSIDE SPHERE   2 =  16.2966    (RMT=  2.5000 )
:PCS002: PARTIAL CHARGES SPHERE =  2 S,P,D,F,PX,PY,PZ,D-Z2,D-X2Y2,D-XY,D-XZ,D-YZ 
:QTL002: 1.7962 4.489010.0095 0.0018 1.4956 1.4965 1.4969 2.0014 2.0023 2.0011 2.0020 2.0027
        Q-s-low E-s-low   Q-p-low E-p-low   Q-d-low E-d-low   Q-f-low E-f-low
:EPL002:  1.7866 -1.3800    0.0022 -0.9500    9.9946 -4.8629    0.0001 -1.0263
        Q-s-hi  E-s-hi    Q-p-hi  E-p-hi    Q-d-hi  E-d-hi    Q-f-hi  E-f-hi 
:EPH002:  0.0095 -0.0819    4.4868 -0.4047    0.0149 -0.0568    0.0017 -0.0498

                      QXX         QXY         QYY         QZZ       UP TO R
:VZZ002:             0.55769     1.61968    -0.11640    -0.44128       2.500

:POS003: ATOM   -3 X,Y,Z = 0.56000 0.50750 0.25000  MULT= 4  ZZ= 35.000  Br        

       LMMAX 28
       LM=   0 0  1 1 -1 1  2 0  2 2 -2 2  3 1 -3 1  3 3 -3 3  4 0  4 2 -4 2  4 4 -4 4  5 1 -5 1
         5 3 -5 3  5 5 -5 5  6 0  6 2 -6 2  6 4 -6 4  6 6 -6 6

:CHA003: TOTAL VALENCE CHARGE INSIDE SPHERE   3 =  15.9441    (RMT=  2.5000 )
:PCS003: PARTIAL CHARGES SPHERE =  3 S,P,D,F,PX,PY,PZ,D-Z2,D-X2Y2,D-XY,D-XZ,D-YZ 
:QTL003: 1.7964 4.130610.0140 0.0024 1.3961 1.4001 1.3344 2.0109 2.0004 2.0002 2.0017 2.0010
        Q-s-low E-s-low   Q-p-low E-p-low   Q-d-low E-d-low   Q-f-low E-f-low
:EPL003:  1.7651 -0.9522    0.0061 -0.9174   10.0001 -4.3433    0.0006 -0.9275
        Q-s-hi  E-s-hi    Q-p-hi  E-p-hi    Q-d-hi  E-d-hi    Q-f-hi  E-f-hi 
:EPH003:  0.0314 -0.2503    4.1245 -0.0641    0.0140 -0.1199    0.0018 -0.1691

                      QXX         QXY         QYY         QZZ       UP TO R
:VZZ003:            -5.38736    -0.35088    -6.62709    12.01444       2.500

:POS004: ATOM   -4 X,Y,Z = 0.19962 0.70227 0.46752  MULT= 8  ZZ= 35.000  Br        

       LMMAX 49

:CHA004: TOTAL VALENCE CHARGE INSIDE SPHERE   4 =  15.9447    (RMT=  2.5000 )
:PCS004: PARTIAL CHARGES SPHERE =  4 S,P,D,F,PX,PY,PZ,D-Z2,D-X2Y2,D-XY,D-XZ,D-YZ 
:QTL004: 1.7962 4.132010.0136 0.0024 1.3690 1.3658 1.3972 2.0027 2.0019 2.0073 2.0008 2.0009
        Q-s-low E-s-low   Q-p-low E-p-low   Q-d-low E-d-low   Q-f-low E-f-low
:EPL004:  1.7656 -0.9521    0.0059 -0.9164   10.0000 -4.3433    0.0006 -0.9301
        Q-s-hi  E-s-hi    Q-p-hi  E-p-hi    Q-d-hi  E-d-hi    Q-f-hi  E-f-hi 
:EPH004:  0.0307 -0.2507    4.1261 -0.0641    0.0136 -0.1223    0.0018 -0.1637

                      QXX         QXY         QYY         QZZ       UP TO R
:VZZ004:             2.28103    -8.57902     3.25796    -5.53899       2.500

:CHA  : TOTAL VALENCE CHARGE INSIDE UNIT CELL =     336.000000

:SUM  : SUM OF EIGENVALUES =        -803.078083125


        1.ATOM      Pb                   19 CORE STATES
:1S 001: 1S               -6465.876381826 Ry
:2S 001: 2S               -1154.922729609 Ry
:2PP001: 2P*              -1108.913342114 Ry
:2P 001: 2P                -947.954623137 Ry
:3S 001: 3S                -276.712200054 Ry
:3PP001: 3P*               -255.986893817 Ry
:3P 001: 3P                -220.073098385 Ry
:3DD001: 3D*               -186.081442592 Ry
:3D 001: 3D                -178.441130082 Ry
:4S 001: 4S                 -62.147036472 Ry
:4PP001: 4P*                -53.182223872 Ry
:4P 001: 4P                 -44.391550735 Ry
:4DD001: 4D*                -29.810739802 Ry
:4D 001: 4D                 -28.170550314 Ry
:5S 001: 5S                  -9.922079826 Ry
:5PP001: 5P*                 -6.866921560 Ry
:5P 001: 5P                  -5.225491325 Ry
:4FF001: 4F*                 -9.298131657 Ry
:4F 001: 4F                  -8.928401452 Ry

        2.ATOM      Cs                   12 CORE STATES
       CORE-FORCE in mRy/a.u. = |F|      Fx             Fy             Fz
:FCO002:   2.ATOM      8.574995294586     -8.497654049948     -1.149095274370      0.000000000000

:1S 002: 1S               -2628.599774792 Ry
:2S 002: 2S                -411.672871216 Ry
:2PP002: 2P*               -387.235689694 Ry
:2P 002: 2P                -361.343908817 Ry
:3S 002: 3S                 -85.122612164 Ry
:3PP002: 3P*                -74.919212904 Ry
:3P 002: 3P                 -69.957339753 Ry
:3DD002: 3D*                -52.038080216 Ry
:3D 002: 3D                 -50.984748533 Ry
:4S 002: 4S                 -15.588140343 Ry
:4PP002: 4P*                -11.927285969 Ry
:4P 002: 4P                 -10.915339345 Ry

        3.ATOM      Br                    7 CORE STATES
       CORE-FORCE in mRy/a.u. = |F|      Fx             Fy             Fz
:FCO003:   3.ATOM    106.309016680310     40.446731976965     98.314133774946      0.000000000000

:1S 003: 1S                -977.961572248 Ry
:2S 003: 2S                -126.758938771 Ry
:2PP003: 2P*               -114.088982002 Ry
:2P 003: 2P                -110.597600629 Ry
:3S 003: 3S                 -16.933099059 Ry
:3PP003: 3P*                -12.528560564 Ry
:3P 003: 3P                 -12.026361115 Ry

        4.ATOM      Br                    7 CORE STATES
       CORE-FORCE in mRy/a.u. = |F|      Fx             Fy             Fz
:FCO004:   4.ATOM     77.831657358520    -22.096539529928    -47.796611010796    -57.314865470129

:1S 004: 1S                -977.961631731 Ry
:2S 004: 2S                -126.758999714 Ry
:2PP004: 2P*               -114.089042726 Ry
:2P 004: 2P                -110.597661385 Ry
:3S 004: 3S                 -16.933160762 Ry
:3PP004: 3P*                -12.528622161 Ry
:3P 004: 3P                 -12.026422679 Ry
:CINT001 Core Integral Atom   1   67.995052
:CINT002 Core Integral Atom   2   35.999909
:CINT003 Core Integral Atom   3   17.999989
:CINT004 Core Integral Atom   4   17.999989

       DENSITY AT NUCLEUS
        JATOM        VALENCE       SEMI-CORE          CORE           TOTAL
:RTO001:   1     1947.811019        0.000000  9911352.888574  9913300.699593
:RTO002:   2      320.955161        0.000000   438170.993759   438491.948920
:RTO003:   3       73.572112        0.000000    45839.118217    45912.690329
:RTO004:   4       73.557906        0.000000    45839.118205    45912.676110
     
       CHARGES OF NEW CHARGE DENSITY
:NTO   : INTERSTITIAL CHARGE =    34.197246
:NPC   : PW Pseudocharge     =   103.264188
:NTO001: CHARGE SPHERE  1    =    79.315625
:NTO002: CHARGE SPHERE  2    =    52.296475
:NTO003: CHARGE SPHERE  3    =    33.944052
:NTO004: CHARGE SPHERE  4    =    33.944727

:NEC01: NUCLEAR AND ELECTRONIC CHARGE    968.00000   967.97968
     
       CHARGES OF OLD CHARGE DENSITY
:OTO   : INTERSTITIAL CHARGE =    36.554720
:OPC   : PW Pseudocharge     =   113.536281
:OTO001: CHARGE SPHERE  1    =    79.796963
:OTO002: CHARGE SPHERE  2    =    52.317397
:OTO003: CHARGE SPHERE  3    =    33.582715
:OTO004: CHARGE SPHERE  4    =    33.582123

:NEC02: NUCLEAR AND ELECTRONIC CHARGE    968.00000   968.00000
     
       CONVERGENCE TEST
:DTO001: DIFFERENCE IN SPHERE  1 =  0.2490721
:DTO002: DIFFERENCE IN SPHERE  2 =  0.0705887
:DTO003: DIFFERENCE IN SPHERE  3 =  0.1824013
:DTO004: DIFFERENCE IN SPHERE  4 =  0.1830903

:DIS  :  CHARGE DISTANCE       ( 0.2490721 for atom    1 spin 1)      0.1736485
 PW Mixed is         2247
 
******************************************************
* MULTISECANT MIXING VER9 RELEASE 10.4.0              *
* Slow Mode, cautious                                *
* Fixed density scale                                *
* Regularization       1.000E-04                     *
* Step Trust Radius    0.75000                       *
* Trust Upper Limit    2.000E+00                     *
* Max Number of Memory Steps   12                    *
******************************************************
 
:PWTMP   3.9481E+03  2.5000E+03  5.2571E+03
:PLANE:  PW TOTAL      8.9288 DISTAN   1.03E+00  1.16E+01 %
:CHARG:  CLM/ATOM   1115.9674 DISTAN   2.07E-01  1.86E-02 %
 
Step History
        DMIX         DMIXT        Red     Pred      Trust     Lambda    MagRel    MagAbs     Beta
  1   3.5000E-02   3.5000E-02 -1.00E+00  1.00E+00 -1.00E+01  1.00E+00  3.50E-02  3.50E-02  1.00E+00
  2   2.5000E-02   2.5000E-02 -1.00E+00  1.00E+00 -1.00E+01  1.00E+00  2.50E-02  8.99E-02  1.00E+00
:JACOBIANS    4.978E-01   6.952E-05
  
:TRUST:  Step 4.30E-02  Charge 7.50E-02 (e) CTO  4.43E-01 (e) PW  6.21E-01 (e)
:DIRM :  MEMORY  1/12 SCALE   1.000
:MIX  :   PRATT  REGULARIZATION:  1.00E-04 GREED: 0.04301  Expand 1.72  0.0430                
     
       CHARGES OF MIXED CHARGE DENSITY
:CTO   : INTERSTITIAL CHARGE =    36.538144
:CPC   : PW Pseudocharge     =   108.795047
:CTO001: CHARGE SPHERE  1    =    79.793602
:CTO002: CHARGE SPHERE  2    =    52.317241
:CTO003: CHARGE SPHERE  3    =    33.585263
:CTO004: CHARGE SPHERE  4    =    33.584679

:NEC03: NUCLEAR AND ELECTRONIC CHARGE    968.00000   968.00000

PW CHANGE     H    K    L      Current       Change    Residue
:PTO001:      0    0    0  2.76452675E-02 -9.050E-04 -2.387E-03
:PTO006:     -1    0   -1 -2.44467567E-03  7.163E-05  1.244E-04
:PTO007:      0    0   -2  3.02879606E-03 -5.114E-04 -1.410E-03
:PTO008:     -1   -1    0  5.68292901E-03 -1.057E-03 -2.771E-03
:PTO009:     -1   -1   -1 -1.05763679E-02  4.128E-04  6.351E-04
:PTO012:      0   -2    0  7.19555808E-03 -8.106E-04 -1.672E-03
:PTO013:     -1   -1   -2  2.27419368E-02 -3.073E-03 -6.846E-03
:PTO014:     -2    0    0  7.13229826E-03 -8.247E-04 -1.680E-03
:PTO015:      0   -2   -1  5.81117031E-03 -2.972E-04 -6.259E-04
:PTO018:     -1   -2    0 -1.06680928E-02  3.318E-04  3.154E-04
:PTO019:     -2   -1    0  1.17280615E-02 -3.733E-04 -3.628E-04
:PTO021:     -1   -2   -1  1.22310109E-02 -3.960E-04 -3.909E-04

:ENE  : ********** TOTAL ENERGY IN Ry =      -292313.12534438

       TOTAL FORCE IN mRy/a.u. = |F|     Fx             Fy             Fz     with/without FOR in case.in2
:FOR001:   1.ATOM          0.000          0.000          0.000          0.000 partial forces
:FOR002:   2.ATOM          4.203          4.179          0.449          0.000 partial forces
:FOR003:   3.ATOM         99.525        -40.632        -90.853          0.000 partial forces
:FOR004:   4.ATOM         75.896         23.137         46.600         55.257 partial forces
       TOTAL FORCE WITH RESPECT TO GLOBAL CARTESIAN COORDINATES:
:FCA001:   1.ATOM                         0.000          0.000          0.000 partial forces
:FCA002:   2.ATOM                         4.179          0.449          0.000 partial forces
:FCA003:   3.ATOM                       -40.632        -90.853          0.000 partial forces
:FCA004:   4.ATOM                        23.137         46.600         55.257 partial forces
       TOTAL FORCE WITH RESPECT TO THE GLOBAL COORDINATE SYSTEM:
:FGL001:   1.ATOM                 0.000000000     0.000000000     0.000000000 partial forces
:FGL002:   2.ATOM                 4.179249816     0.448852042     0.000000000 partial forces
:FGL003:   3.ATOM               -40.631682903   -90.853080628     0.000000000 partial forces
:FGL004:   4.ATOM                23.136925641    46.600105026    55.256837095 partial forces
 Flat Integration
 New Mode for Coulomb Integral
 Consistent 3/8+Simpson combinations
 Extension of core to zero
 LDM version in phi
 Fifth-order quadrature in outwin


            ---------
:ITE003:  3. ITERATION
            ---------

:NATO :    4 INDEPENDENT AND   20 TOTAL ATOMS IN UNITCELL
       SUBSTANCE: blebleble                                                   

       LATTICE                      = P   
:POT  : POTENTIAL OPTION EX_PBE EC_PBE VX_PBE VC_PBE
:LAT  : LATTICE CONSTANTS= 15.19415 15.66734 22.08372    1.571    1.571    1.571
:VOL  : UNIT CELL VOLUME =    5257.07306
       MODE OF CALCULATION IS       = RELA
       NON-SPINPOLARIZED CALCULATION
:IFFT  : FFT-parameters:  120  120  180 Factor: 2.00


   CONVERGENCE PARAMETER FOR PSEUDOCHARGE: NCON=  9
   MAXIMAL VALUE OF RMT(JATOM)*ABSK(NKK) : RK  =29.99804


:VKCOUL :  VK-COUL convergence: 0.225E-08
       ATOMNUMBER=  1 Pb         VCOUL-ZERO =  0.92296E-01
:EFG001:                        EFG         =     0.03603   *10**21  V / m**2
                               V20  TOT/SRF=    -0.02116     0.00188
                               V22  TOT/SRF=     0.00754    -0.00071
                               V22M TOT/SRF=     0.02039    -0.00082
                               V21  TOT/SRF=    -0.00895     0.00315
                               V21M TOT/SRF=    -0.00676    -0.00510

              0.01976    0.02039   -0.00895        0.03603    0.00000    0.00000
              0.02039    0.00468   -0.00676        0.00000   -0.00951    0.00000
             -0.00895   -0.00676   -0.02443        0.00000    0.00000   -0.02652

         MAIN DIRECTIONS OF THE EFG   1.0000 -0.7058  0.1375
                                      0.6991  1.0000  0.1268
                                     -0.2262 -0.0298  1.0000
:ANG001:  ANGLE WITH OLD X-AXIS =        35.7

:ETA001:                         ASYMM. ETA =     0.47206


       ATOMNUMBER=  2 Cs         VCOUL-ZERO = -0.59733E-01
:EFG002:                        EFG         =     0.05845   *10**21  V / m**2
                               V20  TOT/SRF=    -0.01224    -0.00045
                               V22  TOT/SRF=     0.01029    -0.00050
                               V22M TOT/SRF=     0.05034    -0.00101
                               V21  TOT/SRF=     0.00000     0.00000
                               V21M TOT/SRF=     0.00000     0.00000

              0.01736    0.05034    0.00000        0.05845    0.00000    0.00000
              0.05034   -0.00323    0.00000        0.00000   -0.04431    0.00000
              0.00000    0.00000   -0.01414        0.00000    0.00000   -0.01414

         MAIN DIRECTIONS OF THE EFG   1.0000 -0.8162  0.0000
                                      0.8162  1.0000  0.0000
                                      0.0000  0.0000  1.0000
:ANG002:  ANGLE WITH OLD X-AXIS =        39.2

:ETA002:                         ASYMM. ETA =     0.51626


       ATOMNUMBER=  3 Br         VCOUL-ZERO =  0.27245E+00
:EFG003:                        EFG         =     0.39283   *10**21  V / m**2
                               V20  TOT/SRF=     0.34020     0.06383
                               V22  TOT/SRF=     0.02353     0.00572
                               V22M TOT/SRF=    -0.02188    -0.01135
                               V21  TOT/SRF=     0.00000     0.00000
                               V21M TOT/SRF=     0.00000     0.00000

             -0.17288   -0.02188    0.00000       -0.16428    0.00000    0.00000
             -0.02188   -0.21995    0.00000        0.00000   -0.22855    0.00000
              0.00000    0.00000    0.39283        0.00000    0.00000    0.39283

         MAIN DIRECTIONS OF THE EFG   1.0000  0.3930  0.0000
                                     -0.3930  1.0000  0.0000
                                      0.0000  0.0000  1.0000
:ANG003:  ANGLE WITH OLD X-AXIS =        21.5

:ETA003:                         ASYMM. ETA =     0.16359


       ATOMNUMBER=  4 Br         VCOUL-ZERO =  0.27251E+00
:EFG004:                        EFG         =     0.37151   *10**21  V / m**2
                               V20  TOT/SRF=    -0.15383    -0.02760
                               V22  TOT/SRF=    -0.01839    -0.00450
                               V22M TOT/SRF=    -0.28080    -0.05252
                               V21  TOT/SRF=    -0.03151    -0.00408
                               V21M TOT/SRF=     0.00694     0.00787

              0.07043   -0.28080   -0.03151        0.37151    0.00000    0.00000
             -0.28080    0.10720    0.00694        0.00000   -0.20523    0.00000
             -0.03151    0.00694   -0.17763        0.00000    0.00000   -0.16628

         MAIN DIRECTIONS OF THE EFG  -0.9396  1.0000 -0.4726
                                      1.0000  0.8783 -0.5106
                                      0.0665  0.9210  1.0000
:ANG004:  ANGLE WITH OLD X-AXIS =       130.3

:ETA004:                         ASYMM. ETA =     0.10484


     HELLMANN-FEYNMAN-FORCE IN mRy/a.u. = |F|  Fx       Fy             Fz
:FHF001:   1.ATOM      0.000000000000      0.000000000000      0.000000000000      0.000000000000

     HELLMANN-FEYNMAN-FORCE IN mRy/a.u. = |F|  Fx       Fy             Fz
:FHF002:   2.ATOM     12.591647077142     12.459799519869      1.817408055438      0.000000000000

     HELLMANN-FEYNMAN-FORCE IN mRy/a.u. = |F|  Fx       Fy             Fz
:FHF003:   3.ATOM    202.089319271452    -78.011669883626   -186.424977740557      0.000000000000

     HELLMANN-FEYNMAN-FORCE IN mRy/a.u. = |F|  Fx       Fy             Fz
:FHF004:   4.ATOM    148.159562934386     42.461816548641     90.916556451816    109.006559377139

:FIT001: LUSE= 13 SIGMA OF V-XC FIT FOR ATOM  1  0.7733982E-03
:FIT001: LUSE= 13 SIGMA OF V-XC FIT FOR ATOM  1  0.7733982E-03
:FIT002: LUSE= 13 SIGMA OF V-XC FIT FOR ATOM  2  0.1723434E-04
:FIT002: LUSE= 13 SIGMA OF V-XC FIT FOR ATOM  2  0.1723434E-04
:FIT003: LUSE= 13 SIGMA OF V-XC FIT FOR ATOM  3  0.7129180E-03
:FIT003: LUSE= 13 SIGMA OF V-XC FIT FOR ATOM  3  0.7129180E-03
:FIT004: LUSE= 13 SIGMA OF V-XC FIT FOR ATOM  4  0.6337933E-03
:FIT004: LUSE= 13 SIGMA OF V-XC FIT FOR ATOM  4  0.6337933E-03
:DEN  : DENSITY INTEGRAL  =       -114050.65967047   (Ry)
       ELS_POTENTIAL_AT Z=0 and Z=0.5:  -0.53567  -0.53567
       ELS_POTENTIAL_AT Y=0 and Y=0.5:  -0.44805  -0.44805
:VZERO:v0,v0c,v0x  -1.24771  -0.53567  -0.71205 v5,v5c,v5x  -1.24771  -0.53567  -0.71205
:VZERY:v0,v0c,v0x  -1.07993  -0.44805  -0.63187 v5,v5c,v5x  -1.07993  -0.44805  -0.63187
:VZERX:v0,v0c,v0x  -1.07238  -0.44700  -0.62538 v5,v5c,v5x  -1.07238  -0.44700  -0.62538
:LMAX-WF:   10   Non-Spherical LMAX:   4

          ATOMIC SPHERE DEPENDENT PARAMETERS FOR ATOM  Pb        
:e__0001: OVERALL ENERGY PARAMETER IS    0.0010
          OVERALL BASIS SET ON ATOM IS LAPW
:E2_0001: E( 2)=    0.4010
             APW+lo
:E2_0001: E( 2)=   -0.9573   E(BOTTOM)=   -1.194   E(TOP)=   -0.720  2  3   125
             LOCAL ORBITAL
:E0_0001: E( 0)=    0.0010
             APW+lo
:E1_0001: E( 1)=    0.0010
             APW+lo

          ATOMIC SPHERE DEPENDENT PARAMETERS FOR ATOM  Cs        
:e__0002: OVERALL ENERGY PARAMETER IS    0.0010
          OVERALL BASIS SET ON ATOM IS LAPW
:E2_0002: E( 2)=    0.0010
             APW+lo
:E2_0002: E( 2)=   -4.8680   E(BOTTOM)=   -4.880   E(TOP)=   -4.856  1  2   122
             LOCAL ORBITAL
:E0_0002: E( 0)=    0.4010
             APW+lo
:E0_0002: E( 0)=   -1.3766   E(BOTTOM)=   -2.059   E(TOP)=   -0.694  4  5   169
             LOCAL ORBITAL
:E1_0002: E( 1)=    0.4010
             APW+lo
:E1_0002: E( 1)=   -0.2037   E(BOTTOM)=   -1.176   E(TOP)=    0.768  3  4   199
             LOCAL ORBITAL

          ATOMIC SPHERE DEPENDENT PARAMETERS FOR ATOM  Br        
:e__0003: OVERALL ENERGY PARAMETER IS    0.0010
          OVERALL BASIS SET ON ATOM IS LAPW
:E2_0003: E( 2)=    0.0010
             APW+lo
:E2_0003: E( 2)=   -4.3451   E(BOTTOM)=   -4.348   E(TOP)=   -4.342  1  1   123
             LOCAL ORBITAL
:E0_0003: E( 0)=    0.4010
             APW+lo
:E0_0003: E( 0)=   -0.9523   E(BOTTOM)=   -1.518   E(TOP)=   -0.386  3  4   155
             LOCAL ORBITAL
:E1_0003: E( 1)=    0.0010
             APW+lo

          ATOMIC SPHERE DEPENDENT PARAMETERS FOR ATOM  Br        
:e__0004: OVERALL ENERGY PARAMETER IS    0.0010
          OVERALL BASIS SET ON ATOM IS LAPW
:E2_0004: E( 2)=    0.0010
             APW+lo
:E2_0004: E( 2)=   -4.3451   E(BOTTOM)=   -4.348   E(TOP)=   -4.342  1  1   121
             LOCAL ORBITAL
:E0_0004: E( 0)=    0.4010
             APW+lo
:E0_0004: E( 0)=   -0.9523   E(BOTTOM)=   -1.518   E(TOP)=   -0.386  3  4   152
             LOCAL ORBITAL
:E1_0004: E( 1)=    0.0010
             APW+lo

       K=   0.03571   0.03846   0.05556            1
:RKM  : MATRIX SIZE  2238LOs: 308  RKM= 7.00  WEIGHT= 8.00  PGR:    
       EIGENVALUES ARE:
:EIG00001:      -4.8652389   -4.8652304   -4.8652207   -4.8652183   -4.8652155
:EIG00006:      -4.8652101   -4.8652055   -4.8652019   -4.8651958   -4.8651942
:EIG00011:      -4.8651890   -4.8651878   -4.8651789   -4.8651680   -4.8651620
:EIG00016:      -4.8651494   -4.8651448   -4.8651316   -4.8651160   -4.8651099
:EIG00021:      -4.3449825   -4.3449771   -4.3449756   -4.3449690   -4.3449544
:EIG00026:      -4.3449483   -4.3449447   -4.3449413   -4.3449386   -4.3449368
:EIG00031:      -4.3449326   -4.3449269   -4.3446890   -4.3446761   -4.3446730
:EIG00036:      -4.3446707   -4.3446200   -4.3446130   -4.3446107   -4.3446050
:EIG00041:      -4.3446015   -4.3445988   -4.3445959   -4.3445844   -4.3445605
:EIG00046:      -4.3445543   -4.3445429   -4.3445336   -4.3445290   -4.3445262
 
:EIG00051:      -4.3445204   -4.3445166   -4.3443959   -4.3443910   -4.3443860
:EIG00056:      -4.3443783   -4.3439513   -4.3439509   -4.3439427   -4.3439420
:EIG00061:      -4.3439326   -4.3439311   -4.3439280   -4.3439232   -4.3439125
:EIG00066:      -4.3439025   -4.3438970   -4.3438955   -4.3438921   -4.3438912
:EIG00071:      -4.3438892   -4.3438835   -4.3438809   -4.3438808   -4.3438793
:EIG00076:      -4.3438750   -4.3438270   -4.3438255   -4.3438212   -4.3438153
:EIG00081:      -1.3827093   -1.3825460   -1.3823626   -1.3822594   -0.9783084
:EIG00086:      -0.9780330   -0.9779620   -0.9767927   -0.9752928   -0.9721141
:EIG00091:      -0.9538472   -0.9536972   -0.9534496   -0.9531704   -0.9528291
:EIG00096:      -0.9523907   -0.9237054   -0.9235595   -0.9231280   -0.9170707
 
:EIG00101:      -0.9169678   -0.9168880   -0.9168059   -0.9167621   -0.9166898
:EIG00106:      -0.9163079   -0.9162765   -0.9161203   -0.9160391   -0.9159446
:EIG00111:      -0.9156954   -0.9112454   -0.8979054   -0.8854750   -0.8852157
:EIG00116:      -0.8847056   -0.4245450   -0.4237514   -0.4221661   -0.4216082
:EIG00121:      -0.4200118   -0.4195704   -0.4193356   -0.4177899   -0.4177562
:EIG00126:      -0.4175202   -0.4171610   -0.4163282   -0.4153411   -0.3807190
:EIG00131:      -0.3404508   -0.2792156   -0.1568719   -0.1564206   -0.1542546
:EIG00136:      -0.1488774   -0.1476236   -0.1387013   -0.1052010   -0.0872045
:EIG00141:      -0.0840859   -0.0828286   -0.0815245   -0.0742680   -0.0649596
:EIG00146:      -0.0594704   -0.0578253   -0.0548255   -0.0522993   -0.0499997
 
:EIG00151:      -0.0481559   -0.0464273   -0.0459595   -0.0446593   -0.0378018
:EIG00156:      -0.0337982   -0.0334539   -0.0331276   -0.0305160   -0.0292697
:EIG00161:      -0.0279697   -0.0256323   -0.0239413   -0.0236068   -0.0065127
:EIG00166:       0.0474443    0.0955357    0.1493665    0.3257819    0.3287719
:EIG00171:       0.3328504    0.3583842    0.3714666    0.3890577    0.3943341
:EIG00176:       0.4743993    0.4804572    0.4874249    0.4919114    0.5214020
:EIG00181:       0.5228300    0.5274947    0.5348607    0.5391199    0.5398558
:EIG00186:       0.5424576    0.5485375    0.5508874    0.5641605    0.5682637
:EIG00191:       0.5706461    0.5769200    0.5908533    0.5932119    0.5970793
:EIG00196:       0.6032627    0.6054472    0.6100835    0.6119825    0.6206395
 
:EIG00201:       0.6273473    0.6314339    0.6420774    0.6488080    0.6511007
:EIG00206:       0.6669561    0.6714040    0.6821122    0.6885971    0.6942356
:EIG00211:       0.7070462    0.7250146    0.7332624    0.7438231    0.7493780
:EIG00216:       0.7512958    0.7539352    0.7593947    0.7702209    0.7788351
:EIG00221:       0.7796956    0.7841293    0.7866716    0.8259899    0.8459235
:EIG00226:       0.8502889    0.8523113    0.8565072    0.8588751    0.8600283
:EIG00231:       0.8640378    0.8748434    0.8871493    0.8887011    0.9008952
:EIG00236:       0.9188920    0.9301070    0.9400886    0.9474132    0.9514201
:EIG00241:       0.9529143    0.9601241    0.9738415    0.9770151    0.9878909
:EIG00246:       0.9897053    1.0033001    1.0074643    1.0090172    1.0124331
 
:EIG00251:       1.0187657    1.0206093    1.0356995    1.0488895    1.0566432
:EIG00256:       1.0653592    1.0757948    1.0806543    1.0829500    1.0863283
:EIG00261:       1.0878674    1.0943476    1.0976901    1.0988996    1.1035286
:EIG00266:       1.1091616    1.1131116    1.1201933    1.1226175    1.1277586
:EIG00271:       1.1293853    1.1353149    1.1412558    1.1444781    1.1517993
:EIG00276:       1.1574593    1.1607220    1.1646112    1.1682418    1.1685391
:EIG00281:       1.1729405    1.1773815    1.1801788    1.1844935    1.1864181
:EIG00286:       1.1878167    1.1936168    1.1993026    1.2126648    1.2169986
:EIG00291:       1.2209825    1.2216200    1.2248919    1.2306541    1.2357069
:EIG00296:       1.2383958    1.2429576    1.2463875    1.2526682    1.2559973
 
:EIG00301:       1.2640096    1.2680739    1.2763966    1.2813211    1.2830671
:EIG00306:       1.2935353    1.3034288    1.3078828    1.3120976    1.3162406
:EIG00311:       1.3175008    1.3365006    1.3382697    1.3433475    1.3522813
:EIG00316:       1.3620393    1.3668987    1.3728454    1.3777243    1.3844378
:EIG00321:       1.3856336    1.3946537    1.4041210    1.4089800    1.4134628
:EIG00326:       1.4268215    1.4296279    1.4336503    1.4362712    1.4394892
:EIG00331:       1.4454944    1.4470547    1.4500102    1.4564611    1.4657394
:EIG00336:       1.4660983    1.4720046    1.4756515    1.4816521    1.4860553
:EIG00341:       1.4908594    1.4966784    1.5024174    1.5034162    1.5060773
:EIG00346:       1.5151242    1.5183372    1.5209787    1.5235452    1.5283091
 
:EIG00351:       1.5329719    1.5400270    1.5471111    1.5481880    1.5501106
:EIG00356:       1.5599704    1.5656174    1.5727057    1.5803237    1.5826201
:EIG00361:       1.5865575    1.5961404    1.6113755    1.6115345    1.6272052
:EIG00366:       1.6298856    1.6366429    1.6396835    1.6470303    1.6543437
:EIG00371:       1.6557540    1.6608410    1.6644978    1.6724645    1.6766934
:EIG00376:       1.6792385    1.6831994    1.6859366    1.6946601
       ********************************************************

:KPT   :      NUMBER OF K-POINTS:   245
       Insulator, EF-inconsistency corrected
:GAP (global)   :  0.176415 Ry =     2.400 eV (accurate value if proper k-mesh)
         Bandranges (emin - emax) and occupancy:
:BAN00158: 158   -0.042234   -0.030957  2.00000000
:BAN00159: 159   -0.039363   -0.030516  2.00000000
:BAN00160: 160   -0.039363   -0.029270  2.00000000
:BAN00161: 161   -0.035284   -0.027298  2.00000000
:BAN00162: 162   -0.034854   -0.024853  2.00000000
:BAN00163: 163   -0.029334   -0.019571  2.00000000
:BAN00164: 164   -0.029334   -0.019571  2.00000000
:BAN00165: 165   -0.006513    0.057249  2.00000000
:BAN00166: 166    0.002876    0.060354  2.00000000
:BAN00167: 167    0.033907    0.110963  2.00000000
:BAN00168: 168    0.033907    0.149366  2.00000000
:BAN00169: 169    0.325782    0.431401  0.00000000
:BAN00170: 170    0.328772    0.431401  0.00000000
:BAN00171: 171    0.332850    0.435983  0.00000000
:BAN00172: 172    0.350989    0.435983  0.00000000
:BAN00173: 173    0.368438    0.453486  0.00000000
        Energy to separate low and high energystates:   -0.47455


:NOE  : NUMBER OF ELECTRONS          =  336.000

:FER  : F E R M I - ENERGY(TETRAH.M.)=   0.1493664614
:GMA  : POTENTIAL AND CHARGE CUT-OFF  12.00 Ry**.5

:POS001: ATOM   -1 X,Y,Z = 0.50000 0.50000 0.50000  MULT= 4  ZZ= 82.000  Pb        

       LMMAX 28
       LM=   0 0  2 0  2 1 -2 1  2 2 -2 2  4 0  4 1 -4 1  4 2 -4 2  4 3 -4 3  4 4 -4 4  6 0  6 1
        -6 1  6 2 -6 2  6 3 -6 3  6 4 -6 4  6 5 -6 5  6 6 -6 6

:CHA001: TOTAL VALENCE CHARGE INSIDE SPHERE   1 =  11.3233    (RMT=  2.5000 )
:PCS001: PARTIAL CHARGES SPHERE =  1 S,P,D,F,PX,PY,PZ,D-Z2,D-X2Y2,D-XY,D-XZ,D-YZ 
:QTL001: 1.3326 0.2711 9.7047 0.0126 0.0895 0.0902 0.0914 1.9488 1.9370 1.9474 1.9361 1.9354
        Q-s-low E-s-low   Q-p-low E-p-low   Q-d-low E-d-low   Q-f-low E-f-low
:EPL001:  0.0185 -0.9602    0.0089 -0.9517    9.6299 -0.9184    0.0010 -0.9616
        Q-s-hi  E-s-hi    Q-p-hi  E-p-hi    Q-d-hi  E-d-hi    Q-f-hi  E-f-hi 
:EPH001:  1.3141 -0.2347    0.2622 -0.0991    0.0748 -0.0635    0.0115 -0.0651

                      QXX         QXY         QYY         QZZ       UP TO R
:VZZ001:             0.65282     0.66991     0.14003    -0.79286       2.500

:POS002: ATOM   -2 X,Y,Z = 0.48491 0.94655 0.25000  MULT= 4  ZZ= 55.000  Cs        

       LMMAX 28
       LM=   0 0  1 1 -1 1  2 0  2 2 -2 2  3 1 -3 1  3 3 -3 3  4 0  4 2 -4 2  4 4 -4 4  5 1 -5 1
         5 3 -5 3  5 5 -5 5  6 0  6 2 -6 2  6 4 -6 4  6 6 -6 6

:CHA002: TOTAL VALENCE CHARGE INSIDE SPHERE   2 =  16.2972    (RMT=  2.5000 )
:PCS002: PARTIAL CHARGES SPHERE =  2 S,P,D,F,PX,PY,PZ,D-Z2,D-X2Y2,D-XY,D-XZ,D-YZ 
:QTL002: 1.7962 4.489410.0095 0.0018 1.4957 1.4966 1.4971 2.0014 2.0023 2.0011 2.0020 2.0027
        Q-s-low E-s-low   Q-p-low E-p-low   Q-d-low E-d-low   Q-f-low E-f-low
:EPL002:  1.7867 -1.3821    0.0022 -0.9511    9.9946 -4.8651    0.0001 -1.0290
        Q-s-hi  E-s-hi    Q-p-hi  E-p-hi    Q-d-hi  E-d-hi    Q-f-hi  E-f-hi 
:EPH002:  0.0095 -0.0831    4.4872 -0.4067    0.0149 -0.0580    0.0017 -0.0510

                      QXX         QXY         QYY         QZZ       UP TO R
:VZZ002:             0.56036     1.62498    -0.11553    -0.44483       2.500

:POS003: ATOM   -3 X,Y,Z = 0.56000 0.50750 0.25000  MULT= 4  ZZ= 35.000  Br        

       LMMAX 28
       LM=   0 0  1 1 -1 1  2 0  2 2 -2 2  3 1 -3 1  3 3 -3 3  4 0  4 2 -4 2  4 4 -4 4  5 1 -5 1
         5 3 -5 3  5 5 -5 5  6 0  6 2 -6 2  6 4 -6 4  6 6 -6 6

:CHA003: TOTAL VALENCE CHARGE INSIDE SPHERE   3 =  15.9414    (RMT=  2.5000 )
:PCS003: PARTIAL CHARGES SPHERE =  3 S,P,D,F,PX,PY,PZ,D-Z2,D-X2Y2,D-XY,D-XZ,D-YZ 
:QTL003: 1.7963 4.128110.0140 0.0024 1.3955 1.3995 1.3330 2.0109 2.0004 2.0002 2.0017 2.0010
        Q-s-low E-s-low   Q-p-low E-p-low   Q-d-low E-d-low   Q-f-low E-f-low
:EPL003:  1.7648 -0.9533    0.0061 -0.9215   10.0001 -4.3438    0.0006 -0.9317
        Q-s-hi  E-s-hi    Q-p-hi  E-p-hi    Q-d-hi  E-d-hi    Q-f-hi  E-f-hi 
:EPH003:  0.0315 -0.2533    4.1220 -0.0654    0.0140 -0.1224    0.0018 -0.1718

                      QXX         QXY         QYY         QZZ       UP TO R
:VZZ003:            -5.44105    -0.34447    -6.68033    12.12138       2.500

:POS004: ATOM   -4 X,Y,Z = 0.19962 0.70227 0.46752  MULT= 8  ZZ= 35.000  Br        

       LMMAX 49

:CHA004: TOTAL VALENCE CHARGE INSIDE SPHERE   4 =  15.9420    (RMT=  2.5000 )
:PCS004: PARTIAL CHARGES SPHERE =  4 S,P,D,F,PX,PY,PZ,D-Z2,D-X2Y2,D-XY,D-XZ,D-YZ 
:QTL004: 1.7961 4.129410.0136 0.0024 1.3680 1.3648 1.3966 2.0027 2.0019 2.0073 2.0008 2.0009
        Q-s-low E-s-low   Q-p-low E-p-low   Q-d-low E-d-low   Q-f-low E-f-low
:EPL004:  1.7653 -0.9532    0.0059 -0.9205   10.0000 -4.3438    0.0006 -0.9343
        Q-s-hi  E-s-hi    Q-p-hi  E-p-hi    Q-d-hi  E-d-hi    Q-f-hi  E-f-hi 
:EPH004:  0.0308 -0.2538    4.1236 -0.0653    0.0136 -0.1249    0.0018 -0.1664

                      QXX         QXY         QYY         QZZ       UP TO R
:VZZ004:             2.30673    -8.65586     3.28761    -5.59434       2.500

:CHA  : TOTAL VALENCE CHARGE INSIDE UNIT CELL =     336.000000

:SUM  : SUM OF EIGENVALUES =        -803.615685523


        1.ATOM      Pb                   19 CORE STATES
:1S 001: 1S               -6465.881676603 Ry
:2S 001: 2S               -1154.927896340 Ry
:2PP001: 2P*              -1108.918536122 Ry
:2P 001: 2P                -947.959796894 Ry
:3S 001: 3S                -276.717211339 Ry
:3PP001: 3P*               -255.991916540 Ry
:3P 001: 3P                -220.078103702 Ry
:3DD001: 3D*               -186.086471169 Ry
:3D 001: 3D                -178.446152716 Ry
:4S 001: 4S                 -62.151884440 Ry
:4PP001: 4P*                -53.187071751 Ry
:4P 001: 4P                 -44.396377007 Ry
:4DD001: 4D*                -29.815563019 Ry
:4D 001: 4D                 -28.175366485 Ry
:5S 001: 5S                  -9.926652389 Ry
:5PP001: 5P*                 -6.871462456 Ry
:5P 001: 5P                  -5.229981003 Ry
:4FF001: 4F*                 -9.302935149 Ry
:4F 001: 4F                  -8.933201027 Ry

        2.ATOM      Cs                   12 CORE STATES
       CORE-FORCE in mRy/a.u. = |F|      Fx             Fy             Fz
:FCO002:   2.ATOM      8.456912332125     -8.358162749714     -1.288596772670      0.000000000000

:1S 002: 1S               -2628.602399129 Ry
:2S 002: 2S                -411.675393318 Ry
:2PP002: 2P*               -387.238231736 Ry
:2P 002: 2P                -361.346444225 Ry
:3S 002: 3S                 -85.125000352 Ry
:3PP002: 3P*                -74.921606969 Ry
:3P 002: 3P                 -69.959728239 Ry
:3DD002: 3D*                -52.040482634 Ry
:3D 002: 3D                 -50.987148890 Ry
:4S 002: 4S                 -15.590420238 Ry
:4PP002: 4P*                -11.929562154 Ry
:4P 002: 4P                 -10.917610976 Ry

        3.ATOM      Br                    7 CORE STATES
       CORE-FORCE in mRy/a.u. = |F|      Fx             Fy             Fz
[...]
:EIG00141:      -0.0560940   -0.0550936   -0.0539555   -0.0480091   -0.0391755
:EIG00146:      -0.0285951   -0.0275696   -0.0263847   -0.0243346   -0.0222914
 
:EIG00151:      -0.0215316   -0.0187378   -0.0158703   -0.0145290   -0.0141343
:EIG00156:      -0.0134298   -0.0123817   -0.0057323    0.0003113    0.0015254
:EIG00161:       0.0033692    0.0076011    0.0107618    0.0132318    0.0248230
:EIG00166:       0.0412990    0.0791520    0.1255470    0.2672265    0.2686945
:EIG00171:       0.2768666    0.2985477    0.3114076    0.3277559    0.4072268
:EIG00176:       0.4850391    0.4874830    0.4918420    0.4967243    0.5019620
:EIG00181:       0.5037548    0.5069507    0.5204178    0.5271275    0.5351307
:EIG00186:       0.5395095    0.5439082    0.5443467    0.5501147    0.5521548
:EIG00191:       0.5566336    0.5586651    0.5655529    0.5786631    0.5838581
:EIG00196:       0.5867198    0.6078845    0.6106140    0.6139981    0.6222874
 
:EIG00201:       0.6244600    0.6277485    0.6364683    0.6472652    0.6494995
:EIG00206:       0.6682939    0.6729732    0.6761140    0.6892761    0.6987124
:EIG00211:       0.7104708    0.7197903    0.7345719    0.7369459    0.7476550
:EIG00216:       0.7496374    0.7557958    0.7664426    0.7736236    0.7857070
:EIG00221:       0.7873682    0.7920393    0.7940301    0.8192828    0.8397930
:EIG00226:       0.8432445    0.8499064    0.8518141    0.8557914    0.8592780
:EIG00231:       0.8655024    0.8722614    0.8746210    0.8850196    0.9044729
:EIG00236:       0.9189598    0.9246793    0.9334732    0.9442274    0.9476093
:EIG00241:       0.9527028    0.9565196    0.9606557    0.9771666    0.9806791
:EIG00246:       0.9838966    0.9861285    1.0027773    1.0096926    1.0113493
 
:EIG00251:       1.0140749    1.0149038    1.0326015    1.0443696    1.0521839
:EIG00256:       1.0545500    1.0681491    1.0744016    1.0795279    1.0816027
:EIG00261:       1.0840611    1.0928771    1.0976227    1.1000727    1.1029386
:EIG00266:       1.1075192    1.1113099    1.1179000    1.1198422    1.1270916
:EIG00271:       1.1272802    1.1321500    1.1414701    1.1441484    1.1487418
:EIG00276:       1.1551529    1.1580958    1.1601539    1.1630656    1.1668848
:EIG00281:       1.1707643    1.1745745    1.1754405    1.1790075    1.1798906
:EIG00286:       1.1856665    1.1906305    1.1961434    1.2083533    1.2134258
:EIG00291:       1.2165834    1.2176007    1.2229930    1.2292035    1.2342118
:EIG00296:       1.2385910    1.2405865    1.2440177    1.2511811    1.2544041
 
:EIG00301:       1.2607389    1.2634238    1.2693756    1.2763397    1.2797438
:EIG00306:       1.2873931    1.2967144    1.3000130    1.3015933    1.3049715
:EIG00311:       1.3130415    1.3295405    1.3305979    1.3336211    1.3437739
:EIG00316:       1.3496742    1.3593047    1.3660332    1.3726486    1.3793990
:EIG00321:       1.3842601    1.3892540    1.3926646    1.4003734    1.4016815
:EIG00326:       1.4163275    1.4193748    1.4220164    1.4295068    1.4299852
:EIG00331:       1.4350597    1.4403205    1.4427098    1.4460254    1.4543102
:EIG00336:       1.4622672    1.4689172    1.4773719    1.4801235    1.4826600
:EIG00341:       1.4851819    1.4864053    1.4872584    1.4987927    1.5020094
:EIG00346:       1.5097250    1.5164102    1.5222450    1.5245456    1.5265560
 
:EIG00351:       1.5293306    1.5357024    1.5406339    1.5429481    1.5499728
:EIG00356:       1.5586541    1.5606350    1.5641846    1.5747169    1.5786303
:EIG00361:       1.5845439    1.5877435    1.6093476    1.6121210    1.6184894
:EIG00366:       1.6217454
       ********************************************************

:KPT   :      NUMBER OF K-POINTS:   245
       Insulator, EF-inconsistency corrected
:GAP (global)   :  0.141679 Ry =     1.928 eV (accurate value if proper k-mesh)
         Bandranges (emin - emax) and occupancy:
:BAN00158: 158   -0.011070    0.001259  2.00000000
:BAN00159: 159   -0.009875    0.002066  2.00000000
:BAN00160: 160   -0.009752    0.002066  2.00000000
:BAN00161: 161   -0.008404    0.005818  2.00000000
:BAN00162: 162   -0.008404    0.007601  2.00000000
:BAN00163: 163    0.003575    0.013484  2.00000000
:BAN00164: 164    0.003575    0.013484  2.00000000
:BAN00165: 165    0.017396    0.045240  2.00000000
:BAN00166: 166    0.019955    0.048288  2.00000000
:BAN00167: 167    0.024867    0.089509  2.00000000
:BAN00168: 168    0.024867    0.125547  2.00000000
:BAN00169: 169    0.267226    0.391393  0.00000000
:BAN00170: 170    0.268694    0.391393  0.00000000
:BAN00171: 171    0.276867    0.396152  0.00000000
:BAN00172: 172    0.293834    0.396152  0.00000000
:BAN00173: 173    0.309295    0.408655  0.00000000
        Energy to separate low and high energystates:   -0.21357


:NOE  : NUMBER OF ELECTRONS          =  336.000

:FER  : F E R M I - ENERGY(TETRAH.M.)=   0.1255470036
:GMA  : POTENTIAL AND CHARGE CUT-OFF  12.00 Ry**.5

:POS001: ATOM   -1 X,Y,Z = 0.50000 0.50000 0.50000  MULT= 4  ZZ= 82.000  Pb        

       LMMAX 28
       LM=   0 0  2 0  2 1 -2 1  2 2 -2 2  4 0  4 1 -4 1  4 2 -4 2  4 3 -4 3  4 4 -4 4  6 0  6 1
        -6 1  6 2 -6 2  6 3 -6 3  6 4 -6 4  6 5 -6 5  6 6 -6 6

:CHA001: TOTAL VALENCE CHARGE INSIDE SPHERE   1 =  11.5214    (RMT=  2.5000 )
:PCS001: PARTIAL CHARGES SPHERE =  1 S,P,D,F,PX,PY,PZ,D-Z2,D-X2Y2,D-XY,D-XZ,D-YZ 
:QTL001: 1.3766 0.3923 9.7353 0.0147 0.1303 0.1309 0.1311 1.9553 1.9427 1.9541 1.9419 1.9413
        Q-s-low E-s-low   Q-p-low E-p-low   Q-d-low E-d-low   Q-f-low E-f-low
:EPL001:  1.0870 -0.4650    0.0162 -0.7973    9.6678 -1.0789    0.0015 -0.8526
        Q-s-hi  E-s-hi    Q-p-hi  E-p-hi    Q-d-hi  E-d-hi    Q-f-hi  E-f-hi 
:EPH001:  0.2897  0.0275    0.3760 -0.0995    0.0676 -0.0370    0.0133 -0.0398

                      QXX         QXY         QYY         QZZ       UP TO R
:VZZ001:             0.37983     0.73638    -0.14589    -0.23393       2.500

:POS002: ATOM   -2 X,Y,Z = 0.48491 0.94655 0.25000  MULT= 4  ZZ= 55.000  Cs        

       LMMAX 28
       LM=   0 0  1 1 -1 1  2 0  2 2 -2 2  3 1 -3 1  3 3 -3 3  4 0  4 2 -4 2  4 4 -4 4  5 1 -5 1
         5 3 -5 3  5 5 -5 5  6 0  6 2 -6 2  6 4 -6 4  6 6 -6 6

:CHA002: TOTAL VALENCE CHARGE INSIDE SPHERE   2 =  16.3232    (RMT=  2.5000 )
:PCS002: PARTIAL CHARGES SPHERE =  2 S,P,D,F,PX,PY,PZ,D-Z2,D-X2Y2,D-XY,D-XZ,D-YZ 
:QTL002: 1.7981 4.510610.0124 0.0020 1.5026 1.5036 1.5043 2.0019 2.0029 2.0016 2.0025 2.0034
        Q-s-low E-s-low   Q-p-low E-p-low   Q-d-low E-d-low   Q-f-low E-f-low
:EPL002:  1.7880 -1.3990    4.3813 -0.4331    9.9947 -4.8857    0.0001 -0.9196
        Q-s-hi  E-s-hi    Q-p-hi  E-p-hi    Q-d-hi  E-d-hi    Q-f-hi  E-f-hi 
:EPH002:  0.0101 -0.0523    0.1292 -0.0396    0.0177 -0.0261    0.0019 -0.0176

                      QXX         QXY         QYY         QZZ       UP TO R
:VZZ002:             0.78360     2.19229    -0.08166    -0.70194       2.500

:POS003: ATOM   -3 X,Y,Z = 0.56000 0.50750 0.25000  MULT= 4  ZZ= 35.000  Br        

       LMMAX 28
       LM=   0 0  1 1 -1 1  2 0  2 2 -2 2  3 1 -3 1  3 3 -3 3  4 0  4 2 -4 2  4 4 -4 4  5 1 -5 1
         5 3 -5 3  5 5 -5 5  6 0  6 2 -6 2  6 4 -6 4  6 6 -6 6

:CHA003: TOTAL VALENCE CHARGE INSIDE SPHERE   3 =  15.7598    (RMT=  2.5000 )
:PCS003: PARTIAL CHARGES SPHERE =  3 S,P,D,F,PX,PY,PZ,D-Z2,D-X2Y2,D-XY,D-XZ,D-YZ 
:QTL003: 1.7829 3.959310.0141 0.0029 1.3527 1.3593 1.2474 2.0105 2.0003 2.0002 2.0019 2.0012
        Q-s-low E-s-low   Q-p-low E-p-low   Q-d-low E-d-low   Q-f-low E-f-low
:EPL003:  1.7707 -0.9057    0.0871 -0.4832   10.0046 -4.2857    0.0014 -0.6847
        Q-s-hi  E-s-hi    Q-p-hi  E-p-hi    Q-d-hi  E-d-hi    Q-f-hi  E-f-hi 
:EPH003:  0.0122 -0.0537    3.8722 -0.0344    0.0095 -0.0265    0.0015 -0.0675

                      QXX         QXY         QYY         QZZ       UP TO R
:VZZ003:            -9.13028    -0.26852   -11.05850    20.18878       2.500

:POS004: ATOM   -4 X,Y,Z = 0.19962 0.70227 0.46752  MULT= 8  ZZ= 35.000  Br        

       LMMAX 49

:CHA004: TOTAL VALENCE CHARGE INSIDE SPHERE   4 =  15.7587    (RMT=  2.5000 )
:PCS004: PARTIAL CHARGES SPHERE =  4 S,P,D,F,PX,PY,PZ,D-Z2,D-X2Y2,D-XY,D-XZ,D-YZ 
:QTL004: 1.7828 3.958810.0137 0.0028 1.3050 1.2996 1.3542 2.0026 2.0021 2.0071 2.0009 2.0010
        Q-s-low E-s-low   Q-p-low E-p-low   Q-d-low E-d-low   Q-f-low E-f-low
:EPL004:  1.7707 -0.9045    0.0847 -0.4826   10.0045 -4.2848    0.0014 -0.6870
        Q-s-hi  E-s-hi    Q-p-hi  E-p-hi    Q-d-hi  E-d-hi    Q-f-hi  E-f-hi 
:EPH004:  0.0120 -0.0554    3.8742 -0.0335    0.0092 -0.0289    0.0015 -0.0635

                      QXX         QXY         QYY         QZZ       UP TO R
:VZZ004:             3.99591   -14.39091     5.56786    -9.56377       2.500

:CHA  : TOTAL VALENCE CHARGE INSIDE UNIT CELL =     336.000000

:SUM  : SUM OF EIGENVALUES =        -802.946254047


        1.ATOM      Pb                   19 CORE STATES
:1S 001: 1S               -6466.070329592 Ry
:2S 001: 2S               -1155.106210394 Ry
:2PP001: 2P*              -1109.098914825 Ry
:2P 001: 2P                -948.138652017 Ry
:3S 001: 3S                -276.887531316 Ry
:3PP001: 3P*               -256.162744379 Ry
:3P 001: 3P                -220.248272503 Ry
:3DD001: 3D*               -186.257259516 Ry
:3D 001: 3D                -178.616688446 Ry
:4S 001: 4S                 -62.319088477 Ry
:4PP001: 4P*                -53.354306331 Ry
:4P 001: 4P                 -44.563424923 Ry
:4DD001: 4D*                -29.982492005 Ry
:4D 001: 4D                 -28.342219278 Ry
:5S 001: 5S                 -10.092640517 Ry
:5PP001: 5P*                 -7.037714672 Ry
:5P 001: 5P                  -5.396454543 Ry
:4FF001: 4F*                 -9.469357658 Ry
:4F 001: 4F                  -9.099593497 Ry

        2.ATOM      Cs                   12 CORE STATES
       CORE-FORCE in mRy/a.u. = |F|      Fx             Fy             Fz
:FCO002:   2.ATOM      6.491499281248     -6.289545434725      1.606605472097      0.000000000000

:1S 002: 1S               -2628.651965775 Ry
:2S 002: 2S                -411.714982841 Ry
:2PP002: 2P*               -387.279724416 Ry
:2P 002: 2P                -361.387303204 Ry
:3S 002: 3S                 -85.153306572 Ry
:3PP002: 3P*                -74.950383465 Ry
:3P 002: 3P                 -69.988080537 Ry
:3DD002: 3D*                -52.069829802 Ry
:3D 002: 3D                 -51.016332761 Ry
:4S 002: 4S                 -15.612003021 Ry
:4PP002: 4P*                -11.950983486 Ry
:4P 002: 4P                 -10.938815591 Ry

        3.ATOM      Br                    7 CORE STATES
       CORE-FORCE in mRy/a.u. = |F|      Fx             Fy             Fz
:FCO003:   3.ATOM     82.727179608090    -71.426465118036     41.737828485095      0.000000000000

:1S 003: 1S                -977.915077019 Ry
:2S 003: 2S                -126.709443785 Ry
:2PP003: 2P*               -114.040127015 Ry
:2P 003: 2P                -110.548653191 Ry
:3S 003: 3S                 -16.877425792 Ry
:3PP003: 3P*                -12.472857300 Ry
:3P 003: 3P                 -11.970559944 Ry

        4.ATOM      Br                    7 CORE STATES
       CORE-FORCE in mRy/a.u. = |F|      Fx             Fy             Fz
:FCO004:   4.ATOM    113.425031296496     77.252289099375     63.520629008333     53.501880751087

:1S 004: 1S                -977.914087601 Ry
:2S 004: 2S                -126.708443309 Ry
:2PP004: 2P*               -114.039127990 Ry
:2P 004: 2P                -110.547653939 Ry
:3S 004: 3S                 -16.876410942 Ry
:3PP004: 3P*                -12.471842050 Ry
:3P 004: 3P                 -11.969544227 Ry
:CINT001 Core Integral Atom   1   67.995200
:CINT002 Core Integral Atom   2   35.999909
:CINT003 Core Integral Atom   3   17.999988
:CINT004 Core Integral Atom   4   17.999988

       DENSITY AT NUCLEUS
        JATOM        VALENCE       SEMI-CORE          CORE           TOTAL
:RTO001:   1     2059.610201        0.000000  9911370.678255  9913430.288456
:RTO002:   2      321.521544        0.000000   438173.471797   438494.993341
:RTO003:   3       72.170666        0.000000    45839.372470    45911.543136
:RTO004:   4       72.162825        0.000000    45839.373272    45911.536097
     
       CHARGES OF NEW CHARGE DENSITY
:NTO   : INTERSTITIAL CHARGE =    35.512222
:NPC   : PW Pseudocharge     =   102.660969
:NTO001: CHARGE SPHERE  1    =    79.516632
:NTO002: CHARGE SPHERE  2    =    52.323138
:NTO003: CHARGE SPHERE  3    =    33.759800
:NTO004: CHARGE SPHERE  4    =    33.758721

:NEC01: NUCLEAR AND ELECTRONIC CHARGE    968.00000   967.98027
     
       CHARGES OF OLD CHARGE DENSITY
:OTO   : INTERSTITIAL CHARGE =    35.531248
:OPC   : PW Pseudocharge     =   102.716197
:OTO001: CHARGE SPHERE  1    =    79.516610
:OTO002: CHARGE SPHERE  2    =    52.323104
:OTO003: CHARGE SPHERE  3    =    33.759876
:OTO004: CHARGE SPHERE  4    =    33.758799

:NEC02: NUCLEAR AND ELECTRONIC CHARGE    968.00000   968.00000
     
       CONVERGENCE TEST
:DTO001: DIFFERENCE IN SPHERE  1 =  0.0002324
:DTO002: DIFFERENCE IN SPHERE  2 =  0.0000885
:DTO003: DIFFERENCE IN SPHERE  3 =  0.0000981
:DTO004: DIFFERENCE IN SPHERE  4 =  0.0000982

:DIS  :  CHARGE DISTANCE       ( 0.0002324 for atom    1 spin 1)      0.0001231
 PW Mixed is         2247
 
******************************************************
* MULTISECANT MIXING VER9 RELEASE 10.4.0              *
* Standard Mode with controls                        *
* Fixed density scale                                *
* Regularization       1.000E-04                     *
* Trust Upper Limit    5.000E+00                     *
* Max Number of Memory Steps    8                    *
******************************************************
 
:PWTMP   3.9481E+03  2.5000E+03  5.2571E+03
:PLANE:  PW TOTAL      8.0816 DISTAN   7.79E-04  9.64E-03 %
:CHARG:  CLM/ATOM   1115.9443 DISTAN   1.77E-04  1.58E-05 %
 
Step History
        DMIX         DMIXT        Red     Pred      Trust     Lambda    MagRel    MagAbs     Beta
  2   2.5000E-02   2.5000E-02  3.68E-01  1.00E+00 -1.00E+01  1.00E+00  2.50E-02  8.99E-02  1.00E+00
  3   4.3009E-02   4.3009E-02  8.39E-01  1.00E+00 -1.00E+01  7.63E-02  4.30E-02  5.70E-02  1.00E+00
  4   1.0752E-01   1.0752E-01  8.31E-01  1.00E+00  3.20E-01  1.28E+00  1.08E-01  1.20E-01  9.96E-01
  5   2.4734E-01   1.5048E-01  7.09E-01  7.79E-01  5.99E-01  1.25E+00  2.28E-01  2.11E-01  1.00E+00
  6   3.5000E-01   2.8167E-01  4.64E-01  5.18E-01  1.34E+00  1.08E+00  4.77E-01  3.12E-01  1.00E+00
  7   3.5000E-01   3.5000E-01  7.41E-02  1.62E-01  3.81E+00  8.05E-01  9.78E-01  2.97E-01  1.00E+00
  8   2.7781E-01   2.7781E-01  4.93E-01  6.36E-01  1.50E+01  1.12E+00  4.93E-01  1.11E-02  1.00E+00
  9   3.5000E-01   3.5000E-01  3.12E-01  6.69E-01  1.88E+01  8.72E-01  6.53E-01  7.25E-03  1.00E+00
 10   3.5000E-01   3.5000E-01 -1.00E+00  4.81E-01  2.25E+01  1.00E+00  7.57E-01  2.62E-03  1.00E+00
:JACOBIANS    2.351E+00   1.967E+00
  
:NORMS:  1/Froebius, Min, Max, Used   0.8940E+00  0.6755E+00  0.1017E+01  0.9345E+00
:INFO :  Number of Memory Steps    8 Skipping    1
:INFO :  SLambda=    1.0487077242  Max    1.0487077242
:PREDicted Charge, CTotal, PW Trust    3.149E-04   8.480E-04   2.202E-03
:PREDicted DMix, Beta, BLim   6.8730E-01  1.2670E+00  6.1488E+00

Eigenvalues, unscaled except for SY+YY
   #     SY Real        SY Imag          SS             YY         SY+YY Real      SY+YY Imag
   1   3.829473E+00   0.000000E+00   4.070516E+00   4.661392E+00   8.657676E+00   0.000000E+00
   2   2.152064E+00   0.000000E+00   1.876128E+00   2.440843E+00   4.710162E+00   0.000000E+00
   3   2.869460E-01   0.000000E+00   2.660706E-01   4.633436E-01   7.374397E-01   0.000000E+00
   4   2.514268E-01   0.000000E+00   1.497409E-01   3.162425E-01   6.061545E-01   0.000000E+00
   5   6.281809E-02   0.000000E+00   3.058598E-02   1.134552E-01   1.871308E-01   0.000000E+00
   6   2.019820E-03   0.000000E+00   1.221018E-03   3.484660E-03   5.601741E-03   0.000000E+00
   7   7.234228E-04   0.000000E+00   3.373360E-04   1.224651E-03   1.852823E-05   0.000000E+00
   8   4.337343E-06   0.000000E+00   1.347259E-06   1.392820E-05   2.056214E-03   0.000000E+00
 
:INFO :  Singular value  8.669E+00 Weight  1.000E+00 Projection -6.098E-05
:INFO :  Singular value  4.707E+00 Weight  1.000E+00 Projection  2.158E-04
:INFO :  Singular value  7.385E-01 Weight  1.000E+00 Projection -6.180E-04
:INFO :  Singular value  6.056E-01 Weight  1.000E+00 Projection -4.438E-04
:INFO :  Singular value  1.869E-01 Weight  1.000E+00 Projection  3.997E-04
:INFO :  Singular value  5.605E-03 Weight  9.931E-01 Projection  1.212E-02
:INFO :  Singular value  2.055E-03 Weight  9.511E-01 Projection -1.512E-02
:INFO :  Singular value  1.853E-05 Weight  1.577E-03 Projection  5.085E-05
:RANK :  ACTIVE   6.95/8  =  86.82 % ; YY RANK   6.86/8  =  85.71 %
 
:BLIM :  VZERO Control Off
:TRUST:  Step 2.25E+01  Charge 9.68E-02 (e) CTO  3.43E-01 (e) PW  1.05E+00 (e)
:DIRM :  MEMORY  8/8  SCALE   1.000 RED  0.30 PRED  0.48 NEXT  0.30 
:TRAVE:  Charge 4.66E-03 (e) CTO  1.60E-02 (e) PW  6.48E-02 (e)
:DIRP :  |MSR1|= 7.826E-04 |PRATT|= 7.791E-04 ANGLE=   6.2 DEGREES
:DIRQ :  |MSR1|= 6.162E-04 |PRATT|= 7.065E-04 ANGLE=  16.2 DEGREES
:DIRT :  |MSR1|= 9.960E-04 |PRATT|= 1.052E-03 ANGLE=  12.1 DEGREES
:MIX  :   MSE1   REGULARIZATION:  4.66E-04 GREED: 0.35000  Newton 1.00  0.9470                
     
       CHARGES OF MIXED CHARGE DENSITY
:CTO   : INTERSTITIAL CHARGE =    35.531854
:CPC   : PW Pseudocharge     =   102.718251
:CTO001: CHARGE SPHERE  1    =    79.516685
:CTO002: CHARGE SPHERE  2    =    52.323149
:CTO003: CHARGE SPHERE  3    =    33.759786
:CTO004: CHARGE SPHERE  4    =    33.758708

:NEC03: NUCLEAR AND ELECTRONIC CHARGE    968.00000   968.00000

PW CHANGE     H    K    L      Current       Change    Residue
:PTO001:      0    0    0  2.62979234E-02  5.059E-07  4.788E-07
:PTO006:     -1    0   -1 -2.36702849E-03 -1.154E-07 -1.216E-07
:PTO007:      0    0   -2  2.41466000E-03 -7.628E-07 -9.554E-07
:PTO008:     -1   -1    0  4.59020716E-03 -1.312E-06 -1.691E-06
:PTO009:     -1   -1   -1 -1.04205744E-02 -9.677E-07 -1.027E-06
:PTO012:      0   -2    0  6.72654027E-03  1.251E-06  1.074E-06
:PTO013:     -1   -1   -2  2.09284706E-02  5.666E-06  5.021E-06
:PTO014:     -2    0    0  6.70607385E-03  1.458E-06  1.311E-06
:PTO015:      0   -2   -1  5.68207315E-03  1.213E-06  1.235E-06
:PTO018:     -1   -2    0 -1.03087819E-02  3.988E-07  3.804E-07
:PTO019:     -2   -1    0  1.13183498E-02 -4.481E-07 -4.454E-07
:PTO021:     -1   -2   -1  1.17726477E-02 -6.265E-07 -6.305E-07

:ENE  : ********** TOTAL ENERGY IN Ry =      -292312.84417247

       TOTAL FORCE IN mRy/a.u. = |F|     Fx             Fy             Fz     with/without FOR in case.in2
:FOR001:   1.ATOM          0.000          0.000          0.000          0.000 partial forces
:FOR002:   2.ATOM          0.220         -0.174          0.135          0.000 partial forces
:FOR003:   3.ATOM         25.943         23.603        -10.767          0.000 partial forces
:FOR004:   4.ATOM         35.807        -24.129        -20.055        -17.255 partial forces
       TOTAL FORCE WITH RESPECT TO GLOBAL CARTESIAN COORDINATES:
:FCA001:   1.ATOM                         0.000          0.000          0.000 partial forces
:FCA002:   2.ATOM                        -0.174          0.135          0.000 partial forces
:FCA003:   3.ATOM                        23.603        -10.767          0.000 partial forces
:FCA004:   4.ATOM                       -24.129        -20.055        -17.255 partial forces
       TOTAL FORCE WITH RESPECT TO THE GLOBAL COORDINATE SYSTEM:
:FGL001:   1.ATOM                 0.000000000     0.000000000     0.000000000 partial forces
:FGL002:   2.ATOM                -0.174366548     0.134536134     0.000000000 partial forces
:FGL003:   3.ATOM                23.602913216   -10.767213221     0.000000000 partial forces
:FGL004:   4.ATOM               -24.128518661   -20.055312123   -17.254645535 partial forces
