
:LABEL1: Calculations in /home/cmueller/wien/FZU/src/perovskite/3000k
:LABEL2: on cv036 at Thu Jun 20 11:32:28 PM CEST 2024
:LABEL3: using WIEN2k_19.1 (Release 25/6/2019) in /home/cmueller/WIENROOT
:LABEL4: using the command: run_lapw

:LABEL1: Calculations in /home/cmueller/wien/FZU/src/perovskite/3000k
:LABEL2: on cv036 at Thu Jun 20 11:41:25 PM CEST 2024
:LABEL3: using WIEN2k_19.1 (Release 25/6/2019) in /home/cmueller/WIENROOT
:LABEL4: using the command: run_lapw
 Flat Integration
 New Mode for Coulomb Integral
 Consistent 3/8+Simpson combinations
 Extension of core to zero
 LDM version in phi
 Fifth-order quadrature in outwin


            ---------
:ITE001:  1. ITERATION
            ---------

:NATO :    4 INDEPENDENT AND   20 TOTAL ATOMS IN UNITCELL
       SUBSTANCE: blebleble                                                   

       LATTICE                      = P   
:POT  : POTENTIAL OPTION EX_PBE EC_PBE VX_PBE VC_PBE
:LAT  : LATTICE CONSTANTS= 15.19415 15.66734 22.08372    1.571    1.571    1.571
:VOL  : UNIT CELL VOLUME =    5257.07306
       MODE OF CALCULATION IS       = RELA
       NON-SPINPOLARIZED CALCULATION
:IFFT  : FFT-parameters:  120  120  180 Factor: 2.00


   CONVERGENCE PARAMETER FOR PSEUDOCHARGE: NCON=  9
   MAXIMAL VALUE OF RMT(JATOM)*ABSK(NKK) : RK  =29.99804


:VKCOUL :  VK-COUL convergence: 0.423E-07
       ATOMNUMBER=  1 Pb         VCOUL-ZERO =  0.10897E+00
:EFG001:                        EFG         =     0.00590   *10**21  V / m**2
                               V20  TOT/SRF=     0.00113     0.00195
                               V22  TOT/SRF=    -0.00027    -0.00077
                               V22M TOT/SRF=    -0.00029    -0.00093
                               V21  TOT/SRF=     0.00242     0.00330
                               V21M TOT/SRF=    -0.00473    -0.00516

             -0.00092   -0.00029    0.00242       -0.00105    0.00000    0.00000
             -0.00029   -0.00038   -0.00473        0.00000    0.00590    0.00000
              0.00242   -0.00473    0.00130        0.00000    0.00000   -0.00485

         MAIN DIRECTIONS OF THE EFG   1.0000  0.3879 -0.5274
                                      0.5164 -0.7730  1.0000
                                      0.0112  1.0000  0.9776
:ANG001:  ANGLE WITH OLD X-AXIS =        33.2

:ETA001:                         ASYMM. ETA =     0.64411


       ATOMNUMBER=  2 Cs         VCOUL-ZERO = -0.49697E-01
:EFG002:                        EFG         =     0.00079   *10**21  V / m**2
                               V20  TOT/SRF=    -0.00038    -0.00033
                               V22  TOT/SRF=    -0.00031    -0.00059
                               V22M TOT/SRF=    -0.00049    -0.00143
                               V21  TOT/SRF=     0.00000     0.00000
                               V21M TOT/SRF=     0.00000     0.00000

             -0.00009   -0.00049    0.00000       -0.00036    0.00000    0.00000
             -0.00049    0.00053    0.00000        0.00000    0.00079    0.00000
              0.00000    0.00000   -0.00043        0.00000    0.00000   -0.00043

         MAIN DIRECTIONS OF THE EFG   1.0000 -0.5459  0.0000
                                      0.5459  1.0000  0.0000
                                      0.0000  0.0000  1.0000
:ANG002:  ANGLE WITH OLD X-AXIS =        28.6

:ETA002:                         ASYMM. ETA =     0.09356


       ATOMNUMBER=  3 Br         VCOUL-ZERO =  0.28031E+00
:EFG003:                        EFG         =    -0.02231   *10**21  V / m**2
                               V20  TOT/SRF=     0.01925     0.05961
                               V22  TOT/SRF=     0.00410     0.00562
                               V22M TOT/SRF=    -0.01042    -0.01150
                               V21  TOT/SRF=     0.00000     0.00000
                               V21M TOT/SRF=     0.00000     0.00000

             -0.00702   -0.01042    0.00000        0.00008    0.00000    0.00000
             -0.01042   -0.01521    0.00000        0.00000   -0.02231    0.00000
              0.00000    0.00000    0.02223        0.00000    0.00000    0.02223

         MAIN DIRECTIONS OF THE EFG   1.0000  0.6813  0.0000
                                     -0.6813  1.0000  0.0000
                                      0.0000  0.0000  1.0000
:ANG003:  ANGLE WITH OLD X-AXIS =        34.3

:ETA003:                         ASYMM. ETA =     0.99277


       ATOMNUMBER=  4 Br         VCOUL-ZERO =  0.28025E+00
:EFG004:                        EFG         =     0.02212   *10**21  V / m**2
                               V20  TOT/SRF=    -0.00625    -0.02554
                               V22  TOT/SRF=    -0.00319    -0.00440
                               V22M TOT/SRF=    -0.01622    -0.04902
                               V21  TOT/SRF=    -0.00456    -0.00425
                               V21M TOT/SRF=     0.00611     0.00781

              0.00042   -0.01622   -0.00456        0.02212    0.00000    0.00000
             -0.01622    0.00679    0.00611        0.00000   -0.01296    0.00000
             -0.00456    0.00611   -0.00722        0.00000    0.00000   -0.00916

         MAIN DIRECTIONS OF THE EFG  -0.8182  1.0000  0.2387
                                      1.0000  0.8580 -0.1399
                                      0.3353 -0.1186  1.0000
:ANG004:  ANGLE WITH OLD X-AXIS =       128.5

:ETA004:                         ASYMM. ETA =     0.17181


     HELLMANN-FEYNMAN-FORCE IN mRy/a.u. = |F|  Fx       Fy             Fz
:FHF001:   1.ATOM      0.000000000000      0.000000000000      0.000000000000      0.000000000000

     HELLMANN-FEYNMAN-FORCE IN mRy/a.u. = |F|  Fx       Fy             Fz
:FHF002:   2.ATOM     13.212661606233     13.207363767740      0.374124347533      0.000000000000

     HELLMANN-FEYNMAN-FORCE IN mRy/a.u. = |F|  Fx       Fy             Fz
:FHF003:   3.ATOM    220.113963888524    -93.045637347661   -199.480992751907      0.000000000000

     HELLMANN-FEYNMAN-FORCE IN mRy/a.u. = |F|  Fx       Fy             Fz
:FHF004:   4.ATOM    174.202709980683     55.580955909951    107.026757789216    125.708450876934

:FIT001: LUSE= 13 SIGMA OF V-XC FIT FOR ATOM  1  0.7571362E-03
:FIT001: LUSE= 13 SIGMA OF V-XC FIT FOR ATOM  1  0.7571362E-03
:FIT002: LUSE= 13 SIGMA OF V-XC FIT FOR ATOM  2  0.1645418E-04
:FIT002: LUSE= 13 SIGMA OF V-XC FIT FOR ATOM  2  0.1645418E-04
:FIT003: LUSE= 13 SIGMA OF V-XC FIT FOR ATOM  3  0.7450639E-03
:FIT003: LUSE= 13 SIGMA OF V-XC FIT FOR ATOM  3  0.7450639E-03
:FIT004: LUSE= 13 SIGMA OF V-XC FIT FOR ATOM  4  0.6626845E-03
:FIT004: LUSE= 13 SIGMA OF V-XC FIT FOR ATOM  4  0.6626845E-03
:DEN  : DENSITY INTEGRAL  =       -114061.79163689   (Ry)
       ELS_POTENTIAL_AT Z=0 and Z=0.5:  -0.57564  -0.57564
       ELS_POTENTIAL_AT Y=0 and Y=0.5:  -0.47943  -0.47943
:VZERO:v0,v0c,v0x  -1.32226  -0.57564  -0.74662 v5,v5c,v5x  -1.32226  -0.57564  -0.74662
:VZERY:v0,v0c,v0x  -1.13920  -0.47943  -0.65976 v5,v5c,v5x  -1.13920  -0.47943  -0.65976
:VZERX:v0,v0c,v0x  -1.13400  -0.48141  -0.65258 v5,v5c,v5x  -1.13400  -0.48141  -0.65258
:LMAX-WF:   10   Non-Spherical LMAX:   4

          ATOMIC SPHERE DEPENDENT PARAMETERS FOR ATOM  Pb        
:e__0001: OVERALL ENERGY PARAMETER IS    0.3000
          OVERALL BASIS SET ON ATOM IS LAPW
:E2_0001: E( 2)=    0.7000
             APW+lo
:E2_0001: E( 2)=   -0.9369   E(BOTTOM)=   -1.175   E(TOP)=   -0.699  2  3   123
             LOCAL ORBITAL
:E0_0001: E( 0)=    0.3000
             APW+lo
:E1_0001: E( 1)=    0.3000
             APW+lo

          ATOMIC SPHERE DEPENDENT PARAMETERS FOR ATOM  Cs        
:e__0002: OVERALL ENERGY PARAMETER IS    0.3000
          OVERALL BASIS SET ON ATOM IS LAPW
:E2_0002: E( 2)=    0.3000
             APW+lo
:E2_0002: E( 2)=   -4.8572   E(BOTTOM)=   -4.869   E(TOP)=   -4.846  1  2   120
             LOCAL ORBITAL
:E0_0002: E( 0)=    0.7000
             APW+lo
:E0_0002: E( 0)=   -1.3662   E(BOTTOM)=   -2.049   E(TOP)=   -0.683  4  5   169
             LOCAL ORBITAL
:E1_0002: E( 1)=    0.7000
             APW+lo
:E1_0002: E( 1)=   -0.1934   E(BOTTOM)=   -1.166   E(TOP)=    0.779  3  4   199
             LOCAL ORBITAL

          ATOMIC SPHERE DEPENDENT PARAMETERS FOR ATOM  Br        
:e__0003: OVERALL ENERGY PARAMETER IS    0.3000
          OVERALL BASIS SET ON ATOM IS LAPW
:E2_0003: E( 2)=    0.3000
             APW+lo
:E2_0003: E( 2)=   -4.3424   E(BOTTOM)=   -4.346   E(TOP)=   -4.339  1  1   115
             LOCAL ORBITAL
:E0_0003: E( 0)=    0.7000
             APW+lo
:E0_0003: E( 0)=   -0.9471   E(BOTTOM)=   -1.512   E(TOP)=   -0.382  3  4   158
             LOCAL ORBITAL
:E1_0003: E( 1)=    0.3000
             APW+lo

          ATOMIC SPHERE DEPENDENT PARAMETERS FOR ATOM  Br        
:e__0004: OVERALL ENERGY PARAMETER IS    0.3000
          OVERALL BASIS SET ON ATOM IS LAPW
:E2_0004: E( 2)=    0.3000
             APW+lo
:E2_0004: E( 2)=   -4.3426   E(BOTTOM)=   -4.346   E(TOP)=   -4.339  1  1   119
             LOCAL ORBITAL
:E0_0004: E( 0)=    0.7000
             APW+lo
:E0_0004: E( 0)=   -0.9473   E(BOTTOM)=   -1.512   E(TOP)=   -0.382  3  4   153
             LOCAL ORBITAL
:E1_0004: E( 1)=    0.3000
             APW+lo

       K=   0.03125   0.03125   0.04545            1
:RKM  : MATRIX SIZE  2239LOs: 308  RKM= 7.00  WEIGHT= 8.00  PGR:    
       EIGENVALUES ARE:
:EIG00001:      -4.8544103   -4.8544077   -4.8543967   -4.8543942   -4.8543894
:EIG00006:      -4.8543883   -4.8543834   -4.8543784   -4.8543748   -4.8543679
:EIG00011:      -4.8543617   -4.8543521   -4.8543446   -4.8543420   -4.8543245
:EIG00016:      -4.8543123   -4.8543095   -4.8543083   -4.8542928   -4.8542808
:EIG00021:      -4.3422811   -4.3422734   -4.3422705   -4.3422661   -4.3422648
:EIG00026:      -4.3422630   -4.3422596   -4.3422527   -4.3421706   -4.3421667
:EIG00031:      -4.3421656   -4.3421592   -4.3420072   -4.3420066   -4.3419998
:EIG00036:      -4.3419935   -4.3419899   -4.3419868   -4.3419838   -4.3419730
:EIG00041:      -4.3419542   -4.3419448   -4.3419368   -4.3419287   -4.3419264
:EIG00046:      -4.3419254   -4.3419245   -4.3419165   -4.3419141   -4.3419109
 
:EIG00051:      -4.3419046   -4.3419010   -4.3416391   -4.3416358   -4.3416307
:EIG00056:      -4.3416228   -4.3415008   -4.3414976   -4.3414911   -4.3414905
:EIG00061:      -4.3414810   -4.3414796   -4.3414768   -4.3414711   -4.3414576
:EIG00066:      -4.3414522   -4.3414436   -4.3414408   -4.3414391   -4.3414370
:EIG00071:      -4.3414301   -4.3414290   -4.3413177   -4.3413134   -4.3413111
:EIG00076:      -4.3413045   -4.3412465   -4.3412414   -4.3412397   -4.3412344
:EIG00081:      -1.3724574   -1.3722894   -1.3721033   -1.3719982   -0.9681516
:EIG00086:      -0.9679272   -0.9679094   -0.9676738   -0.9675627   -0.9664374
:EIG00091:      -0.9484425   -0.9482240   -0.9478621   -0.9477733   -0.9475312
:EIG00096:      -0.9471203   -0.9034249   -0.9032974   -0.9030671   -0.8964666
 
:EIG00101:      -0.8964148   -0.8962996   -0.8961968   -0.8961833   -0.8960770
:EIG00106:      -0.8957168   -0.8956759   -0.8955122   -0.8954275   -0.8953633
:EIG00111:      -0.8950864   -0.8930443   -0.8811947   -0.8699821   -0.8696819
:EIG00116:      -0.8691697   -0.4146669   -0.4122851   -0.4118660   -0.4103737
:EIG00121:      -0.4097342   -0.4093374   -0.4089947   -0.4077879   -0.4076724
:EIG00126:      -0.4076298   -0.4071104   -0.4062155   -0.4054091   -0.3659336
:EIG00131:      -0.3250696   -0.2619959   -0.1486475   -0.1482108   -0.1465808
:EIG00136:      -0.1406056   -0.1397079   -0.1302885   -0.0991245   -0.0808017
:EIG00141:      -0.0777850   -0.0765370   -0.0751636   -0.0680395   -0.0583080
:EIG00146:      -0.0535866   -0.0521664   -0.0489701   -0.0463631   -0.0442149
 
:EIG00151:      -0.0421894   -0.0406532   -0.0399834   -0.0385543   -0.0316620
:EIG00156:      -0.0269371   -0.0266839   -0.0259512   -0.0244415   -0.0232514
:EIG00161:      -0.0220305   -0.0201064   -0.0181807   -0.0180298   -0.0004673
:EIG00166:       0.0569774    0.1058192    0.1607091    0.3384617    0.3412851
:EIG00171:       0.3450877    0.3713869    0.3844624    0.4018148    0.4024246
:EIG00176:       0.4825720    0.4884684    0.4962819    0.5001679    0.5320079
:EIG00181:       0.5332123    0.5366910    0.5453066    0.5484404    0.5508557
:EIG00186:       0.5508997    0.5573577    0.5597820    0.5745552    0.5778732
:EIG00191:       0.5798415    0.5850763    0.6018695    0.6048243    0.6066767
:EIG00196:       0.6149223    0.6162209    0.6196257    0.6227111    0.6285059
 
:EIG00201:       0.6366198    0.6416230    0.6527620    0.6584032    0.6605927
:EIG00206:       0.6750279    0.6786994    0.6904144    0.6972930    0.7024942
:EIG00211:       0.7155697    0.7340688    0.7411507    0.7529737    0.7575232
:EIG00216:       0.7599554    0.7620383    0.7673452    0.7789950    0.7869420
:EIG00221:       0.7876786    0.7916790    0.7947369    0.8353528    0.8550480
:EIG00226:       0.8591252    0.8607362    0.8641118    0.8671149    0.8683331
:EIG00231:       0.8719345    0.8831311    0.8944753    0.8966115    0.9079458
:EIG00236:       0.9275956    0.9382847    0.9504695    0.9567296    0.9601204
:EIG00241:       0.9613560    0.9672689    0.9815440    0.9857556    0.9959755
:EIG00246:       0.9980196    1.0134239    1.0150684    1.0179923    1.0199212
 
:EIG00251:       1.0269829    1.0292167    1.0441787    1.0557576    1.0623986
:EIG00256:       1.0729365    1.0825414    1.0886569    1.0901527    1.0921591
:EIG00261:       1.0941053    1.0993832    1.1015954    1.1043487    1.1084860
:EIG00266:       1.1148962    1.1191594    1.1260274    1.1298935    1.1330371
:EIG00271:       1.1349507    1.1397771    1.1451227    1.1478039    1.1594939
:EIG00276:       1.1636417    1.1671881    1.1703718    1.1746401    1.1760073
:EIG00281:       1.1770446    1.1837385    1.1851357    1.1889678    1.1918296
:EIG00286:       1.1933675    1.1977254    1.2034082    1.2147804    1.2199764
:EIG00291:       1.2231556    1.2256890    1.2275822    1.2333373    1.2403818
:EIG00296:       1.2411468    1.2433341    1.2479743    1.2519480    1.2616686
 
:EIG00301:       1.2681233    1.2705108    1.2788908    1.2860787    1.2865963
:EIG00306:       1.2964328    1.3071246    1.3105457    1.3149178    1.3167572
:EIG00311:       1.3220471    1.3304193    1.3424893    1.3432366    1.3571414
:EIG00316:       1.3584526    1.3686994    1.3744932    1.3812462    1.3838982
:EIG00321:       1.3873596    1.3879373    1.4045923    1.4071473    1.4107633
:EIG00326:       1.4199571    1.4222883    1.4327991    1.4346349    1.4372245
:EIG00331:       1.4456448    1.4472930    1.4522615    1.4542808    1.4624767
:EIG00336:       1.4685925    1.4710859    1.4744079    1.4774856    1.4836804
:EIG00341:       1.4890658    1.4910964    1.4964570    1.5002457    1.5021910
:EIG00346:       1.5074354    1.5140167    1.5169672    1.5196319    1.5259826
 
:EIG00351:       1.5312123    1.5348756    1.5409574    1.5436716    1.5517303
:EIG00356:       1.5617723    1.5661108    1.5735272    1.5803134    1.5831855
:EIG00361:       1.5928150    1.5957694    1.6084815    1.6125082    1.6228483
:EIG00366:       1.6301835    1.6357861    1.6383930    1.6433161    1.6549118
:EIG00371:       1.6550050    1.6573389    1.6668838    1.6719267    1.6769124
:EIG00376:       1.6785531    1.6817549    1.6909988    1.6994332    1.7091304
:EIG00381:       1.7094935    1.7165691    1.7203943    1.7242239    1.7271530
:EIG00386:       1.7326149    1.7370826    1.7425283    1.7442878    1.7484956
:EIG00391:       1.7520975    1.7559082    1.7632795    1.7660804    1.7750505
:EIG00396:       1.7760129    1.7828971    1.7917503    1.7940985    1.7959365
 
:EIG00401:       1.8047599    1.8112994    1.8162318    1.8187735    1.8226741
:EIG00406:       1.8273024    1.8286682    1.8370155    1.8384212    1.8422978
:EIG00411:       1.8452123    1.8517651    1.8530458    1.8650121    1.8735728
:EIG00416:       1.8844136    1.8864726    1.8905001    1.8979622    1.9001923
:EIG00421:       1.9033895    1.9067789    1.9103839    1.9130820    1.9205020
:EIG00426:       1.9225204    1.9339711    1.9381120    1.9418993    1.9449895
:EIG00431:       1.9546186    1.9605833    1.9632474    1.9694246    1.9751863
:EIG00436:       1.9826912    1.9891928    1.9928902    1.9992439
       ********************************************************

:KPT   :      NUMBER OF K-POINTS:   384
       Insulator, EF-inconsistency corrected
:GAP (global)   :  0.177753 Ry =     2.418 eV (accurate value if proper k-mesh)
         Bandranges (emin - emax) and occupancy:
:BAN00158: 158   -0.036277   -0.025185  2.00000000
:BAN00159: 159   -0.033343   -0.024442  2.00000000
:BAN00160: 160   -0.033257   -0.023251  2.00000000
:BAN00161: 161   -0.029192   -0.021979  2.00000000
:BAN00162: 162   -0.027991   -0.019379  2.00000000
:BAN00163: 163   -0.023468   -0.014001  2.00000000
:BAN00164: 164   -0.023468   -0.013875  2.00000000
:BAN00165: 165   -0.000467    0.065961  2.00000000
:BAN00166: 166    0.010357    0.069113  2.00000000
:BAN00167: 167    0.044299    0.121765  2.00000000
:BAN00168: 168    0.045072    0.160709  2.00000000
:BAN00169: 169    0.338462    0.436096  0.00000000
:BAN00170: 170    0.341285    0.436096  0.00000000
:BAN00171: 171    0.345088    0.448477  0.00000000
:BAN00172: 172    0.363527    0.448477  0.00000000
:BAN00173: 173    0.379875    0.464166  0.00000000
        Energy to separate low and high energystates:   -0.46467


:NOE  : NUMBER OF ELECTRONS          =  336.000

:FER  : F E R M I - ENERGY(TETRAH.M.)=   0.1607090773
:GMA  : POTENTIAL AND CHARGE CUT-OFF  12.00 Ry**.5

:POS001: ATOM   -1 X,Y,Z = 0.50000 0.50000 0.50000  MULT= 4  ZZ= 82.000  Pb        

       LMMAX 28
       LM=   0 0  2 0  2 1 -2 1  2 2 -2 2  4 0  4 1 -4 1  4 2 -4 2  4 3 -4 3  4 4 -4 4  6 0  6 1
        -6 1  6 2 -6 2  6 3 -6 3  6 4 -6 4  6 5 -6 5  6 6 -6 6

:CHA001: TOTAL VALENCE CHARGE INSIDE SPHERE   1 =  11.3104    (RMT=  2.5000 )
:PCS001: PARTIAL CHARGES SPHERE =  1 S,P,D,F,PX,PY,PZ,D-Z2,D-X2Y2,D-XY,D-XZ,D-YZ 
:QTL001: 1.3301 0.2629 9.7026 0.0124 0.0868 0.0874 0.0887 1.9483 1.9366 1.9470 1.9358 1.9350
        Q-s-low E-s-low   Q-p-low E-p-low   Q-d-low E-d-low   Q-f-low E-f-low
:EPL001:  0.0177 -0.9545    0.0087 -0.9464    9.6271 -0.8979    0.0010 -0.9568
        Q-s-hi  E-s-hi    Q-p-hi  E-p-hi    Q-d-hi  E-d-hi    Q-f-hi  E-f-hi 
:EPH001:  1.3124 -0.2171    0.2542 -0.0907    0.0756 -0.0566    0.0114 -0.0583

                      QXX         QXY         QYY         QZZ       UP TO R
:VZZ001:             0.65362     0.65279     0.16078    -0.81440       2.500

:POS002: ATOM   -2 X,Y,Z = 0.48491 0.94655 0.25000  MULT= 4  ZZ= 55.000  Cs        

       LMMAX 28
       LM=   0 0  1 1 -1 1  2 0  2 2 -2 2  3 1 -3 1  3 3 -3 3  4 0  4 2 -4 2  4 4 -4 4  5 1 -5 1
         5 3 -5 3  5 5 -5 5  6 0  6 2 -6 2  6 4 -6 4  6 6 -6 6

:CHA002: TOTAL VALENCE CHARGE INSIDE SPHERE   2 =  16.2947    (RMT=  2.5000 )
:PCS002: PARTIAL CHARGES SPHERE =  2 S,P,D,F,PX,PY,PZ,D-Z2,D-X2Y2,D-XY,D-XZ,D-YZ 
:QTL002: 1.7960 4.487510.0093 0.0018 1.4951 1.4960 1.4964 2.0014 2.0022 2.0011 2.0019 2.0026
        Q-s-low E-s-low   Q-p-low E-p-low   Q-d-low E-d-low   Q-f-low E-f-low
:EPL002:  1.7865 -1.3718    0.0022 -0.9454    9.9946 -4.8543    0.0001 -1.0167
        Q-s-hi  E-s-hi    Q-p-hi  E-p-hi    Q-d-hi  E-d-hi    Q-f-hi  E-f-hi 
:EPH002:  0.0095 -0.0770    4.4853 -0.3968    0.0147 -0.0520    0.0017 -0.0450

                      QXX         QXY         QYY         QZZ       UP TO R
:VZZ002:             0.54766     1.59479    -0.11869    -0.42897       2.500

:POS003: ATOM   -3 X,Y,Z = 0.56000 0.50750 0.25000  MULT= 4  ZZ= 35.000  Br        

       LMMAX 28
       LM=   0 0  1 1 -1 1  2 0  2 2 -2 2  3 1 -3 1  3 3 -3 3  4 0  4 2 -4 2  4 4 -4 4  5 1 -5 1
         5 3 -5 3  5 5 -5 5  6 0  6 2 -6 2  6 4 -6 4  6 6 -6 6

:CHA003: TOTAL VALENCE CHARGE INSIDE SPHERE   3 =  15.9553    (RMT=  2.5000 )
:PCS003: PARTIAL CHARGES SPHERE =  3 S,P,D,F,PX,PY,PZ,D-Z2,D-X2Y2,D-XY,D-XZ,D-YZ 
:QTL003: 1.7970 4.141310.0141 0.0024 1.3989 1.4027 1.3397 2.0109 2.0004 2.0002 2.0017 2.0009
        Q-s-low E-s-low   Q-p-low E-p-low   Q-d-low E-d-low   Q-f-low E-f-low
:EPL003:  1.7662 -0.9479    0.0063 -0.9020   10.0001 -4.3411    0.0006 -0.9117
        Q-s-hi  E-s-hi    Q-p-hi  E-p-hi    Q-d-hi  E-d-hi    Q-f-hi  E-f-hi 
:EPH003:  0.0308 -0.2384    4.1350 -0.0589    0.0140 -0.1100    0.0018 -0.1584

                      QXX         QXY         QYY         QZZ       UP TO R
:VZZ003:            -5.13936    -0.36331    -6.35670    11.49606       2.500

:POS004: ATOM   -4 X,Y,Z = 0.19962 0.70227 0.46752  MULT= 8  ZZ= 35.000  Br        

       LMMAX 49

:CHA004: TOTAL VALENCE CHARGE INSIDE SPHERE   4 =  15.9560    (RMT=  2.5000 )
:PCS004: PARTIAL CHARGES SPHERE =  4 S,P,D,F,PX,PY,PZ,D-Z2,D-X2Y2,D-XY,D-XZ,D-YZ 
:QTL004: 1.7968 4.142710.0137 0.0024 1.3729 1.3699 1.3999 2.0027 2.0019 2.0073 2.0008 2.0009
        Q-s-low E-s-low   Q-p-low E-p-low   Q-d-low E-d-low   Q-f-low E-f-low
:EPL004:  1.7666 -0.9479    0.0061 -0.9008   10.0000 -4.3413    0.0006 -0.9143
        Q-s-hi  E-s-hi    Q-p-hi  E-p-hi    Q-d-hi  E-d-hi    Q-f-hi  E-f-hi 
:EPH004:  0.0301 -0.2387    4.1366 -0.0590    0.0136 -0.1123    0.0018 -0.1531

                      QXX         QXY         QYY         QZZ       UP TO R
:VZZ004:             2.16546    -8.20703     3.11555    -5.28101       2.500

:CHA  : TOTAL VALENCE CHARGE INSIDE UNIT CELL =     336.000000

:SUM  : SUM OF EIGENVALUES =        -800.985400264


        1.ATOM      Pb                   19 CORE STATES
:1S 001: 1S               -6465.856478861 Ry
:2S 001: 2S               -1154.903306790 Ry
:2PP001: 2P*              -1108.893817011 Ry
:2P 001: 2P                -947.935173972 Ry
:3S 001: 3S                -276.693360124 Ry
:3PP001: 3P*               -255.968010997 Ry
:3P 001: 3P                -220.054280836 Ry
:3DD001: 3D*               -186.062537820 Ry
:3D 001: 3D                -178.422247597 Ry
:4S 001: 4S                 -62.128808944 Ry
:4PP001: 4P*                -53.163996678 Ry
:4P 001: 4P                 -44.373404565 Ry
:4DD001: 4D*                -29.792605091 Ry
:4D 001: 4D                 -28.152442018 Ry
:5S 001: 5S                  -9.904885030 Ry
:5PP001: 5P*                 -6.849845520 Ry
:5P 001: 5P                  -5.208607376 Ry
:4FF001: 4F*                 -9.280070916 Ry
:4F 001: 4F                  -8.910355399 Ry

        2.ATOM      Cs                   12 CORE STATES
       CORE-FORCE in mRy/a.u. = |F|      Fx             Fy             Fz
:FCO002:   2.ATOM      8.842542940986     -8.835064566040     -0.363592872713      0.000000000000

:1S 002: 1S               -2628.589836052 Ry
:2S 002: 2S                -411.663315835 Ry
:2PP002: 2P*               -387.226059542 Ry
:2P 002: 2P                -361.334303543 Ry
:3S 002: 3S                 -85.113558932 Ry
:3PP002: 3P*                -74.910137637 Ry
:3P 002: 3P                 -69.948285401 Ry
:3DD002: 3D*                -52.028973622 Ry
:3D 002: 3D                 -50.975649671 Ry
:4S 002: 4S                 -15.579493186 Ry
:4PP002: 4P*                -11.918652724 Ry
:4P 002: 4P                 -10.906723180 Ry

        3.ATOM      Br                    7 CORE STATES
       CORE-FORCE in mRy/a.u. = |F|      Fx             Fy             Fz
:FCO003:   3.ATOM    113.798211866841     46.855090037281    103.704549377974      0.000000000000

:1S 003: 1S                -977.960077086 Ry
:2S 003: 2S                -126.757186875 Ry
:2PP003: 2P*               -114.087264181 Ry
:2P 003: 2P                -110.595877631 Ry
:3S 003: 3S                 -16.930995736 Ry
:3PP003: 3P*                -12.526450390 Ry
:3P 003: 3P                 -12.024239283 Ry

        4.ATOM      Br                    7 CORE STATES
       CORE-FORCE in mRy/a.u. = |F|      Fx             Fy             Fz
:FCO004:   4.ATOM     88.726814992281    -27.631481055139    -54.539348517191    -64.299365601025

:1S 004: 1S                -977.960247445 Ry
:2S 004: 2S                -126.757357083 Ry
:2PP004: 2P*               -114.087434426 Ry
:2P 004: 2P                -110.596047870 Ry
:3S 004: 3S                 -16.931164448 Ry
:3PP004: 3P*                -12.526618974 Ry
:3P 004: 3P                 -12.024407776 Ry
:CINT001 Core Integral Atom   1   67.995039
:CINT002 Core Integral Atom   2   35.999909
:CINT003 Core Integral Atom   3   17.999989
:CINT004 Core Integral Atom   4   17.999989

       DENSITY AT NUCLEUS
        JATOM        VALENCE       SEMI-CORE          CORE           TOTAL
:RTO001:   1     1927.878919        0.000000  9911349.920423  9913277.799343
:RTO002:   2      320.878679        0.000000   438170.878700   438491.757379
:RTO003:   3       73.645526        0.000000    45839.135817    45912.781343
:RTO004:   4       73.629450        0.000000    45839.135906    45912.765356
     
       CHARGES OF NEW CHARGE DENSITY
:NTO   : INTERSTITIAL CHARGE =    34.110567
:NPC   : PW Pseudocharge     =   103.142725
:NTO001: CHARGE SPHERE  1    =    79.305396
:NTO002: CHARGE SPHERE  2    =    52.294593
:NTO003: CHARGE SPHERE  3    =    33.955308
:NTO004: CHARGE SPHERE  4    =    33.955984

:NEC01: NUCLEAR AND ELECTRONIC CHARGE    968.00000   967.97963
     
       CHARGES OF OLD CHARGE DENSITY
:OTO   : INTERSTITIAL CHARGE =    36.640813
:OPC   : PW Pseudocharge     =   131.400716
:OTO001: CHARGE SPHERE  1    =    79.809567
:OTO002: CHARGE SPHERE  2    =    52.317982
:OTO003: CHARGE SPHERE  3    =    33.573161
:OTO004: CHARGE SPHERE  4    =    33.572536

:NEC02: NUCLEAR AND ELECTRONIC CHARGE    968.00000   968.02395
     
       CONVERGENCE TEST
:DTO001: DIFFERENCE IN SPHERE  1 =  0.2619583
:DTO002: DIFFERENCE IN SPHERE  2 =  0.0742550
:DTO003: DIFFERENCE IN SPHERE  3 =  0.1900924
:DTO004: DIFFERENCE IN SPHERE  4 =  0.1907623

:DIS  :  CHARGE DISTANCE       ( 0.2619583 for atom    1 spin 1)      0.1815661
 PW Mixed is         2248
 
******************************************************
* MULTISECANT MIXING VER9 RELEASE 10.4.0              *
* Standard Mode with controls                        *
* Fixed density scale                                *
* Regularization       1.000E-04                     *
* Trust Upper Limit    5.000E+00                     *
* Max Number of Memory Steps    8                    *
******************************************************
 
:PWTMP   3.9481E+03  2.5000E+03  5.2571E+03
:PLANE:  PW TOTAL     10.8628 DISTAN   3.49E+00  3.21E+01 %
:CHARG:  CLM/ATOM   1115.9684 DISTAN   2.17E-01  1.94E-02 %
 
Step History
        DMIX         DMIXT        Red     Pred      Trust     Lambda    MagRel    MagAbs     Beta
  1   3.5000E-02   3.5000E-02 -1.00E+00  1.00E+00 -1.00E+01  1.00E+00  3.50E-02  3.50E-02  1.00E+00
:INFO :  Note, Pratt in use
:TRUST:  Step 3.75E-02  Charge 7.50E-02 (e) CTO  4.43E-01 (e) PW  6.21E-01 (e)
:DIRM :  MEMORY  0/ 8 SCALE   1.000
Performing Pseudo Compensation
Final Pseudo Compensation Rescaling     1.00017E+00
:MIX  :   PRATT  REGULARIZATION:  1.00E-04 GREED: 0.02500                  
     
       CHARGES OF MIXED CHARGE DENSITY
:CTO   : INTERSTITIAL CHARGE =    36.554718
:CPC   : PW Pseudocharge     =   113.536239
:CTO001: CHARGE SPHERE  1    =    79.796963
:CTO002: CHARGE SPHERE  2    =    52.317397
:CTO003: CHARGE SPHERE  3    =    33.582715
:CTO004: CHARGE SPHERE  4    =    33.582123

:NEC03: NUCLEAR AND ELECTRONIC CHARGE    968.00000   968.00000

PW CHANGE     H    K    L      Current       Change    Residue
:PTO001:      0    0    0  2.85502893E-02 -3.394E-03 -5.820E-03
:PTO006:     -1    0   -1 -2.51635149E-03  2.686E-04  3.934E-04
:PTO007:      0    0   -2  3.54022766E-03 -1.918E-03 -3.357E-03
:PTO008:     -1   -1    0  6.73948573E-03 -3.963E-03 -6.792E-03
:PTO009:     -1   -1   -1 -1.09892390E-02  1.548E-03  2.191E-03
:PTO012:      0   -2    0  8.00611202E-03 -3.040E-03 -4.732E-03
:PTO013:     -1   -1   -2  2.58156648E-02 -1.152E-02 -1.846E-02
:PTO014:     -2    0    0  7.95695353E-03 -3.092E-03 -4.793E-03
:PTO015:      0   -2   -1  6.10838091E-03 -1.114E-03 -1.748E-03
:PTO018:     -1   -2    0 -1.09999214E-02  1.244E-03  1.562E-03
:PTO019:     -2   -1    0  1.21013299E-02 -1.400E-03 -1.765E-03
:PTO021:     -1   -2   -1  1.26269703E-02 -1.485E-03 -1.878E-03

:ENE  : ********** TOTAL ENERGY IN Ry =      -292313.14249563

       TOTAL FORCE IN mRy/a.u. = |F|     Fx             Fy             Fz     with/without FOR in case.in2
:FOR001:   1.ATOM          0.000          0.000          0.000          0.000 partial forces
:FOR002:   2.ATOM          4.372          4.372          0.011          0.000 partial forces
:FOR003:   3.ATOM        106.333        -46.191        -95.776          0.000 partial forces
:FOR004:   4.ATOM         85.482         27.949         52.487         61.409 partial forces
       TOTAL FORCE WITH RESPECT TO GLOBAL CARTESIAN COORDINATES:
:FCA001:   1.ATOM                         0.000          0.000          0.000 partial forces
:FCA002:   2.ATOM                         4.372          0.011          0.000 partial forces
:FCA003:   3.ATOM                       -46.191        -95.776          0.000 partial forces
:FCA004:   4.ATOM                        27.949         52.487         61.409 partial forces
       TOTAL FORCE WITH RESPECT TO THE GLOBAL COORDINATE SYSTEM:
:FGL001:   1.ATOM                 0.000000000     0.000000000     0.000000000 partial forces
:FGL002:   2.ATOM                 4.372299202     0.010531475     0.000000000 partial forces
:FGL003:   3.ATOM               -46.190547310   -95.776443374     0.000000000 partial forces
:FGL004:   4.ATOM                27.949474855    52.487409272    61.409085276 partial forces
 Flat Integration
 New Mode for Coulomb Integral
 Consistent 3/8+Simpson combinations
 Extension of core to zero
 LDM version in phi
 Fifth-order quadrature in outwin


            ---------
:ITE002:  2. ITERATION
            ---------

:NATO :    4 INDEPENDENT AND   20 TOTAL ATOMS IN UNITCELL
       SUBSTANCE: blebleble                                                   

       LATTICE                      = P   
:POT  : POTENTIAL OPTION EX_PBE EC_PBE VX_PBE VC_PBE
:LAT  : LATTICE CONSTANTS= 15.19415 15.66734 22.08372    1.571    1.571    1.571
:VOL  : UNIT CELL VOLUME =    5257.07306
       MODE OF CALCULATION IS       = RELA
       NON-SPINPOLARIZED CALCULATION
:IFFT  : FFT-parameters:  120  120  180 Factor: 2.00


   CONVERGENCE PARAMETER FOR PSEUDOCHARGE: NCON=  9
   MAXIMAL VALUE OF RMT(JATOM)*ABSK(NKK) : RK  =29.99804


:VKCOUL :  VK-COUL convergence: 0.235E-08
       ATOMNUMBER=  1 Pb         VCOUL-ZERO =  0.95796E-01
:EFG001:                        EFG         =     0.02830   *10**21  V / m**2
                               V20  TOT/SRF=    -0.01647     0.00190
                               V22  TOT/SRF=     0.00589    -0.00072
                               V22M TOT/SRF=     0.01603    -0.00085
                               V21  TOT/SRF=    -0.00656     0.00318
                               V21M TOT/SRF=    -0.00633    -0.00511

              0.01540    0.01603   -0.00656        0.02830    0.00000    0.00000
              0.01603    0.00361   -0.00633        0.00000   -0.00743    0.00000
             -0.00656   -0.00633   -0.01901        0.00000    0.00000   -0.02088

         MAIN DIRECTIONS OF THE EFG   1.0000 -0.7393  0.0935
                                      0.7093  1.0000  0.1974
                                     -0.2335 -0.1283  1.0000
:ANG001:  ANGLE WITH OLD X-AXIS =        36.7

:ETA001:                         ASYMM. ETA =     0.47520


       ATOMNUMBER=  2 Cs         VCOUL-ZERO = -0.57642E-01
:EFG002:                        EFG         =     0.04608   *10**21  V / m**2
                               V20  TOT/SRF=    -0.00975    -0.00042
                               V22  TOT/SRF=     0.00806    -0.00052
                               V22M TOT/SRF=     0.03964    -0.00110
                               V21  TOT/SRF=     0.00000     0.00000
                               V21M TOT/SRF=     0.00000     0.00000

              0.01369    0.03964    0.00000        0.04608    0.00000    0.00000
              0.03964   -0.00243    0.00000        0.00000   -0.03482    0.00000
              0.00000    0.00000   -0.01126        0.00000    0.00000   -0.01126

         MAIN DIRECTIONS OF THE EFG   1.0000 -0.8170  0.0000
                                      0.8170  1.0000  0.0000
                                      0.0000  0.0000  1.0000
:ANG002:  ANGLE WITH OLD X-AXIS =        39.2

:ETA002:                         ASYMM. ETA =     0.51131


       ATOMNUMBER=  3 Br         VCOUL-ZERO =  0.27407E+00
:EFG003:                        EFG         =     0.31479   *10**21  V / m**2
                               V20  TOT/SRF=     0.27261     0.06293
                               V22  TOT/SRF=     0.01944     0.00570
                               V22M TOT/SRF=    -0.01946    -0.01138
                               V21  TOT/SRF=     0.00000     0.00000
                               V21M TOT/SRF=     0.00000     0.00000

             -0.13795   -0.01946    0.00000       -0.12988    0.00000    0.00000
             -0.01946   -0.17684    0.00000        0.00000   -0.18491    0.00000
              0.00000    0.00000    0.31479        0.00000    0.00000    0.31479

         MAIN DIRECTIONS OF THE EFG   1.0000  0.4145  0.0000
                                     -0.4145  1.0000  0.0000
                                      0.0000  0.0000  1.0000
:ANG003:  ANGLE WITH OLD X-AXIS =        22.5

:ETA003:                         ASYMM. ETA =     0.17479


       ATOMNUMBER=  4 Br         VCOUL-ZERO =  0.27410E+00
:EFG004:                        EFG         =     0.29764   *10**21  V / m**2
                               V20  TOT/SRF=    -0.12276    -0.02716
                               V22  TOT/SRF=    -0.01519    -0.00448
                               V22M TOT/SRF=    -0.22509    -0.05178
                               V21  TOT/SRF=    -0.02584    -0.00411
                               V21M TOT/SRF=     0.00676     0.00786

              0.05569   -0.22509   -0.02584        0.29764    0.00000    0.00000
             -0.22509    0.08606    0.00676        0.00000   -0.16423    0.00000
             -0.02584    0.00676   -0.14175        0.00000    0.00000   -0.13340

         MAIN DIRECTIONS OF THE EFG  -0.9378  1.0000 -0.4525
                                      1.0000  0.8754 -0.4949
                                      0.0705  0.8857  1.0000
:ANG004:  ANGLE WITH OLD X-AXIS =       130.5

:ETA004:                         ASYMM. ETA =     0.10358


     HELLMANN-FEYNMAN-FORCE IN mRy/a.u. = |F|  Fx       Fy             Fz
:FHF001:   1.ATOM      0.000000000000      0.000000000000      0.000000000000      0.000000000000

     HELLMANN-FEYNMAN-FORCE IN mRy/a.u. = |F|  Fx       Fy             Fz
:FHF002:   2.ATOM     12.762397536422     12.671258755909      1.522495457623      0.000000000000

     HELLMANN-FEYNMAN-FORCE IN mRy/a.u. = |F|  Fx       Fy             Fz
:FHF003:   3.ATOM    205.866916014553    -81.123404735085   -189.209355776955      0.000000000000

     HELLMANN-FEYNMAN-FORCE IN mRy/a.u. = |F|  Fx       Fy             Fz
:FHF004:   4.ATOM    153.700968663729     45.218198622076     94.386618566335    112.563175671070

:FIT001: LUSE= 13 SIGMA OF V-XC FIT FOR ATOM  1  0.7699680E-03
:FIT001: LUSE= 13 SIGMA OF V-XC FIT FOR ATOM  1  0.7699680E-03
:FIT002: LUSE= 13 SIGMA OF V-XC FIT FOR ATOM  2  0.1706835E-04
:FIT002: LUSE= 13 SIGMA OF V-XC FIT FOR ATOM  2  0.1706835E-04
:FIT003: LUSE= 13 SIGMA OF V-XC FIT FOR ATOM  3  0.7195892E-03
:FIT003: LUSE= 13 SIGMA OF V-XC FIT FOR ATOM  3  0.7195892E-03
:FIT004: LUSE= 13 SIGMA OF V-XC FIT FOR ATOM  4  0.6397584E-03
:FIT004: LUSE= 13 SIGMA OF V-XC FIT FOR ATOM  4  0.6397584E-03
:DEN  : DENSITY INTEGRAL  =       -114052.97329448   (Ry)
       ELS_POTENTIAL_AT Z=0 and Z=0.5:  -0.54399  -0.54399
       ELS_POTENTIAL_AT Y=0 and Y=0.5:  -0.45460  -0.45460
:VZERO:v0,v0c,v0x  -1.26511  -0.54399  -0.72112 v5,v5c,v5x  -1.26511  -0.54399  -0.72112
:VZERY:v0,v0c,v0x  -1.09370  -0.45460  -0.63911 v5,v5c,v5x  -1.09370  -0.45460  -0.63911
:VZERX:v0,v0c,v0x  -1.08666  -0.45418  -0.63248 v5,v5c,v5x  -1.08666  -0.45418  -0.63248
:LMAX-WF:   10   Non-Spherical LMAX:   4

          ATOMIC SPHERE DEPENDENT PARAMETERS FOR ATOM  Pb        
:e__0001: OVERALL ENERGY PARAMETER IS    0.1000
          OVERALL BASIS SET ON ATOM IS LAPW
:E2_0001: E( 2)=    0.5000
             APW+lo
:E2_0001: E( 2)=   -0.9530   E(BOTTOM)=   -1.190   E(TOP)=   -0.716  2  3   122
             LOCAL ORBITAL
:E0_0001: E( 0)=    0.1000
             APW+lo
:E1_0001: E( 1)=    0.1000
             APW+lo

          ATOMIC SPHERE DEPENDENT PARAMETERS FOR ATOM  Cs        
:e__0002: OVERALL ENERGY PARAMETER IS    0.1000
          OVERALL BASIS SET ON ATOM IS LAPW
:E2_0002: E( 2)=    0.1000
             APW+lo
:E2_0002: E( 2)=   -4.8658   E(BOTTOM)=   -4.877   E(TOP)=   -4.854  1  2   118
             LOCAL ORBITAL
:E0_0002: E( 0)=    0.5000
             APW+lo
:E0_0002: E( 0)=   -1.3744   E(BOTTOM)=   -2.057   E(TOP)=   -0.692  4  5   170
             LOCAL ORBITAL
:E1_0002: E( 1)=    0.5000
             APW+lo
:E1_0002: E( 1)=   -0.2016   E(BOTTOM)=   -1.174   E(TOP)=    0.771  3  4   195
             LOCAL ORBITAL

          ATOMIC SPHERE DEPENDENT PARAMETERS FOR ATOM  Br        
:e__0003: OVERALL ENERGY PARAMETER IS    0.1000
          OVERALL BASIS SET ON ATOM IS LAPW
:E2_0003: E( 2)=    0.1000
             APW+lo
:E2_0003: E( 2)=   -4.3446   E(BOTTOM)=   -4.348   E(TOP)=   -4.341  1  1   120
             LOCAL ORBITAL
:E0_0003: E( 0)=    0.5000
             APW+lo
:E0_0003: E( 0)=   -0.9512   E(BOTTOM)=   -1.517   E(TOP)=   -0.386  3  4   160
             LOCAL ORBITAL
:E1_0003: E( 1)=    0.1000
             APW+lo

          ATOMIC SPHERE DEPENDENT PARAMETERS FOR ATOM  Br        
:e__0004: OVERALL ENERGY PARAMETER IS    0.1000
          OVERALL BASIS SET ON ATOM IS LAPW
:E2_0004: E( 2)=    0.1000
             APW+lo
:E2_0004: E( 2)=   -4.3446   E(BOTTOM)=   -4.348   E(TOP)=   -4.341  1  1   122
             LOCAL ORBITAL
:E0_0004: E( 0)=    0.5000
             APW+lo
:E0_0004: E( 0)=   -0.9513   E(BOTTOM)=   -1.517   E(TOP)=   -0.386  3  4   153
             LOCAL ORBITAL
:E1_0004: E( 1)=    0.1000
             APW+lo

       K=   0.03125   0.03125   0.04545            1
:RKM  : MATRIX SIZE  2239LOs: 308  RKM= 7.00  WEIGHT= 8.00  PGR:    
       EIGENVALUES ARE:
:EIG00001:      -4.8629805   -4.8629687   -4.8629638   -4.8629562   -4.8629558
:EIG00006:      -4.8629521   -4.8629513   -4.8629451   -4.8629432   -4.8629390
:EIG00011:      -4.8629314   -4.8629282   -4.8629189   -4.8629131   -4.8629014
:EIG00016:      -4.8628893   -4.8628851   -4.8628739   -4.8628593   -4.8628515
:EIG00021:      -4.3444356   -4.3444272   -4.3444258   -4.3444247   -4.3444236
:EIG00026:      -4.3444213   -4.3444167   -4.3444160   -4.3444135   -4.3444102
:EIG00031:      -4.3444083   -4.3444036   -4.3441504   -4.3441358   -4.3441331
:EIG00036:      -4.3441302   -4.3441095   -4.3441056   -4.3440994   -4.3440951
:EIG00041:      -4.3440917   -4.3440885   -4.3440856   -4.3440741   -4.3440504
:EIG00046:      -4.3440464   -4.3440345   -4.3440245   -4.3440183   -4.3440159
 
:EIG00051:      -4.3440106   -4.3440061   -4.3438545   -4.3438503   -4.3438464
:EIG00056:      -4.3438374   -4.3434769   -4.3434750   -4.3434671   -4.3434668
:EIG00061:      -4.3434568   -4.3434555   -4.3434526   -4.3434477   -4.3434347
:EIG00066:      -4.3434271   -4.3434189   -4.3434163   -4.3434147   -4.3434129
:EIG00071:      -4.3434064   -4.3434038   -4.3433883   -4.3433839   -4.3433817
:EIG00076:      -4.3433750   -4.3433240   -4.3433191   -4.3433174   -4.3433119
:EIG00081:      -1.3805923   -1.3804272   -1.3802426   -1.3801385   -0.9761562
:EIG00086:      -0.9758772   -0.9758261   -0.9748354   -0.9737008   -0.9709998
:EIG00091:      -0.9526673   -0.9525321   -0.9522086   -0.9519955   -0.9517264
:EIG00096:      -0.9513003   -0.9195316   -0.9193785   -0.9191106   -0.9127504
 
:EIG00101:      -0.9127004   -0.9125848   -0.9124749   -0.9124704   -0.9123627
:EIG00106:      -0.9120004   -0.9119629   -0.9118115   -0.9117229   -0.9116579
:EIG00111:      -0.9113767   -0.9075827   -0.8944842   -0.8822908   -0.8820197
:EIG00116:      -0.8815196   -0.4225412   -0.4209520   -0.4201512   -0.4195606
:EIG00121:      -0.4180064   -0.4175643   -0.4173001   -0.4157691   -0.4157123
:EIG00126:      -0.4155048   -0.4151194   -0.4142601   -0.4132979   -0.3776909
:EIG00131:      -0.3371886   -0.2751188   -0.1553255   -0.1549618   -0.1533021
:EIG00136:      -0.1472668   -0.1463653   -0.1371935   -0.1041129   -0.0858673
:EIG00141:      -0.0827812   -0.0815801   -0.0802290   -0.0730657   -0.0633361
:EIG00146:      -0.0582700   -0.0569010   -0.0536667   -0.0512051   -0.0490229
 
:EIG00151:      -0.0468479   -0.0452852   -0.0447660   -0.0433707   -0.0364655
:EIG00156:      -0.0323418   -0.0321059   -0.0315789   -0.0292027   -0.0279990
:EIG00161:      -0.0267429   -0.0245852   -0.0227568   -0.0224777   -0.0053875
:EIG00166:       0.0495900    0.0979381    0.1523289    0.3280254    0.3307568
:EIG00171:       0.3347690    0.3608241    0.3738289    0.3913959    0.3954496
:EIG00176:       0.4758662    0.4819027    0.4891447    0.4932917    0.5243960
:EIG00181:       0.5247706    0.5293757    0.5370362    0.5410823    0.5422624
:EIG00186:       0.5436925    0.5501641    0.5529981    0.5662868    0.5701639
:EIG00191:       0.5730419    0.5783558    0.5937966    0.5956869    0.5988211
:EIG00196:       0.6057366    0.6084870    0.6121831    0.6137821    0.6216417
 
:EIG00201:       0.6292289    0.6333888    0.6453331    0.6509866    0.6533069
:EIG00206:       0.6680122    0.6714651    0.6835968    0.6898103    0.6957549
:EIG00211:       0.7086846    0.7270108    0.7341785    0.7464295    0.7508784
:EIG00216:       0.7528028    0.7553743    0.7605795    0.7724008    0.7803877
:EIG00221:       0.7810399    0.7852853    0.7878336    0.8283670    0.8483789
:EIG00226:       0.8524876    0.8538325    0.8574077    0.8605941    0.8611551
:EIG00231:       0.8650766    0.8764544    0.8876576    0.8892793    0.9015410
:EIG00236:       0.9211581    0.9315212    0.9437001    0.9501818    0.9535497
:EIG00241:       0.9549354    0.9606203    0.9756075    0.9785573    0.9891782
:EIG00246:       0.9910105    1.0062103    1.0091948    1.0114541    1.0140157
 
:EIG00251:       1.0201766    1.0225531    1.0380508    1.0494515    1.0563047
:EIG00256:       1.0665568    1.0774625    1.0829623    1.0845016    1.0873941
:EIG00261:       1.0887006    1.0946329    1.0972446    1.0992832    1.1039813
:EIG00266:       1.1103003    1.1138295    1.1208223    1.1247462    1.1278719
:EIG00271:       1.1297580    1.1350011    1.1406125    1.1434138    1.1539061
:EIG00276:       1.1586687    1.1623027    1.1653238    1.1697657    1.1705880
:EIG00281:       1.1725494    1.1784437    1.1806984    1.1849369    1.1861452
:EIG00286:       1.1883328    1.1929176    1.1992789    1.2123637    1.2167127
:EIG00291:       1.2195144    1.2219786    1.2238378    1.2296979    1.2359111
:EIG00296:       1.2379732    1.2406754    1.2448021    1.2501270    1.2560421
 
:EIG00301:       1.2640196    1.2665985    1.2753445    1.2818458    1.2821446
:EIG00306:       1.2938454    1.3030926    1.3071019    1.3119393    1.3131831
:EIG00311:       1.3169883    1.3339188    1.3380356    1.3425589    1.3525468
:EIG00316:       1.3588452    1.3658616    1.3734398    1.3782784    1.3834953
:EIG00321:       1.3849216    1.3898401    1.4033931    1.4070739    1.4119442
:EIG00326:       1.4244175    1.4283904    1.4316864    1.4352733    1.4373170
:EIG00331:       1.4446896    1.4460005    1.4497582    1.4532725    1.4625016
:EIG00336:       1.4655586    1.4707105    1.4740074    1.4792373    1.4834180
:EIG00341:       1.4900762    1.4938580    1.4985738    1.5018855    1.5033760
:EIG00346:       1.5107857    1.5150911    1.5176827    1.5195489    1.5252727
 
:EIG00351:       1.5333084    1.5367626    1.5432305    1.5446530    1.5486101
:EIG00356:       1.5610289    1.5628435    1.5715931    1.5786994    1.5803120
:EIG00361:       1.5879877    1.5946605    1.6079336    1.6108478    1.6257435
:EIG00366:       1.6280353    1.6352036    1.6375286    1.6457433    1.6529809
:EIG00371:       1.6530756    1.6572848    1.6641712    1.6707719    1.6762621
:EIG00376:       1.6770230    1.6825595    1.6858319    1.6951271    1.7064688
:EIG00381:       1.7087673    1.7125958    1.7192174    1.7230689    1.7243129
:EIG00386:       1.7306433    1.7342892    1.7379035    1.7412835    1.7447390
:EIG00391:       1.7508521    1.7534565    1.7649925    1.7664844    1.7728803
:EIG00396:       1.7781671    1.7836169    1.7900038    1.7913953    1.7963396
 
       ********************************************************

:KPT   :      NUMBER OF K-POINTS:   384
       Insulator, EF-inconsistency corrected
:GAP (global)   :  0.175696 Ry =     2.390 eV (accurate value if proper k-mesh)
         Bandranges (emin - emax) and occupancy:
:BAN00158: 158   -0.040957   -0.029889  2.00000000
:BAN00159: 159   -0.038151   -0.029203  2.00000000
:BAN00160: 160   -0.038068   -0.027999  2.00000000
:BAN00161: 161   -0.034362   -0.026643  2.00000000
:BAN00162: 162   -0.032924   -0.023864  2.00000000
:BAN00163: 163   -0.028232   -0.018535  2.00000000
:BAN00164: 164   -0.028232   -0.018407  2.00000000
:BAN00165: 165   -0.005387    0.058248  2.00000000
:BAN00166: 166    0.004309    0.061369  2.00000000
:BAN00167: 167    0.036280    0.113526  2.00000000
:BAN00168: 168    0.036995    0.152329  2.00000000
:BAN00169: 169    0.328025    0.426954  0.00000000
:BAN00170: 170    0.330757    0.426954  0.00000000
:BAN00171: 171    0.334769    0.439156  0.00000000
:BAN00172: 172    0.353118    0.439156  0.00000000
:BAN00173: 173    0.369256    0.454728  0.00000000
        Energy to separate low and high energystates:   -0.47254


:NOE  : NUMBER OF ELECTRONS          =  336.000

:FER  : F E R M I - ENERGY(TETRAH.M.)=   0.1523289324
:GMA  : POTENTIAL AND CHARGE CUT-OFF  12.00 Ry**.5

:POS001: ATOM   -1 X,Y,Z = 0.50000 0.50000 0.50000  MULT= 4  ZZ= 82.000  Pb        

       LMMAX 28
       LM=   0 0  2 0  2 1 -2 1  2 2 -2 2  4 0  4 1 -4 1  4 2 -4 2  4 3 -4 3  4 4 -4 4  6 0  6 1
        -6 1  6 2 -6 2  6 3 -6 3  6 4 -6 4  6 5 -6 5  6 6 -6 6

:CHA001: TOTAL VALENCE CHARGE INSIDE SPHERE   1 =  11.3206    (RMT=  2.5000 )
:PCS001: PARTIAL CHARGES SPHERE =  1 S,P,D,F,PX,PY,PZ,D-Z2,D-X2Y2,D-XY,D-XZ,D-YZ 
:QTL001: 1.3321 0.2694 9.7043 0.0125 0.0890 0.0896 0.0908 1.9487 1.9369 1.9473 1.9361 1.9353
        Q-s-low E-s-low   Q-p-low E-p-low   Q-d-low E-d-low   Q-f-low E-f-low
:EPL001:  0.0183 -0.9591    0.0089 -0.9507    9.6292 -0.9141    0.0010 -0.9607
        Q-s-hi  E-s-hi    Q-p-hi  E-p-hi    Q-d-hi  E-d-hi    Q-f-hi  E-f-hi 
:EPH001:  1.3137 -0.2311    0.2606 -0.0974    0.0750 -0.0621    0.0115 -0.0638

                      QXX         QXY         QYY         QZZ       UP TO R
:VZZ001:             0.65283     0.66620     0.14488    -0.79771       2.500

:POS002: ATOM   -2 X,Y,Z = 0.48491 0.94655 0.25000  MULT= 4  ZZ= 55.000  Cs        

       LMMAX 28
       LM=   0 0  1 1 -1 1  2 0  2 2 -2 2  3 1 -3 1  3 3 -3 3  4 0  4 2 -4 2  4 4 -4 4  5 1 -5 1
         5 3 -5 3  5 5 -5 5  6 0  6 2 -6 2  6 4 -6 4  6 6 -6 6

:CHA002: TOTAL VALENCE CHARGE INSIDE SPHERE   2 =  16.2966    (RMT=  2.5000 )
:PCS002: PARTIAL CHARGES SPHERE =  2 S,P,D,F,PX,PY,PZ,D-Z2,D-X2Y2,D-XY,D-XZ,D-YZ 
:QTL002: 1.7962 4.489010.0095 0.0018 1.4956 1.4965 1.4969 2.0014 2.0023 2.0011 2.0020 2.0027
        Q-s-low E-s-low   Q-p-low E-p-low   Q-d-low E-d-low   Q-f-low E-f-low
:EPL002:  1.7866 -1.3800    0.0022 -0.9500    9.9946 -4.8629    0.0001 -1.0263
        Q-s-hi  E-s-hi    Q-p-hi  E-p-hi    Q-d-hi  E-d-hi    Q-f-hi  E-f-hi 
:EPH002:  0.0095 -0.0819    4.4868 -0.4047    0.0149 -0.0568    0.0017 -0.0498

                      QXX         QXY         QYY         QZZ       UP TO R
:VZZ002:             0.55791     1.61975    -0.11636    -0.44154       2.500

:POS003: ATOM   -3 X,Y,Z = 0.56000 0.50750 0.25000  MULT= 4  ZZ= 35.000  Br        

       LMMAX 28
       LM=   0 0  1 1 -1 1  2 0  2 2 -2 2  3 1 -3 1  3 3 -3 3  4 0  4 2 -4 2  4 4 -4 4  5 1 -5 1
         5 3 -5 3  5 5 -5 5  6 0  6 2 -6 2  6 4 -6 4  6 6 -6 6

:CHA003: TOTAL VALENCE CHARGE INSIDE SPHERE   3 =  15.9441    (RMT=  2.5000 )
:PCS003: PARTIAL CHARGES SPHERE =  3 S,P,D,F,PX,PY,PZ,D-Z2,D-X2Y2,D-XY,D-XZ,D-YZ 
:QTL003: 1.7964 4.130610.0140 0.0024 1.3961 1.4001 1.3343 2.0109 2.0004 2.0002 2.0017 2.0010
        Q-s-low E-s-low   Q-p-low E-p-low   Q-d-low E-d-low   Q-f-low E-f-low
:EPL003:  1.7651 -0.9522    0.0061 -0.9174   10.0001 -4.3433    0.0006 -0.9275
        Q-s-hi  E-s-hi    Q-p-hi  E-p-hi    Q-d-hi  E-d-hi    Q-f-hi  E-f-hi 
:EPH003:  0.0314 -0.2503    4.1245 -0.0641    0.0140 -0.1199    0.0018 -0.1691

                      QXX         QXY         QYY         QZZ       UP TO R
:VZZ003:            -5.38748    -0.35094    -6.62686    12.01434       2.500

:POS004: ATOM   -4 X,Y,Z = 0.19962 0.70227 0.46752  MULT= 8  ZZ= 35.000  Br        

       LMMAX 49

:CHA004: TOTAL VALENCE CHARGE INSIDE SPHERE   4 =  15.9447    (RMT=  2.5000 )
:PCS004: PARTIAL CHARGES SPHERE =  4 S,P,D,F,PX,PY,PZ,D-Z2,D-X2Y2,D-XY,D-XZ,D-YZ 
:QTL004: 1.7962 4.132010.0136 0.0024 1.3690 1.3658 1.3972 2.0027 2.0019 2.0073 2.0008 2.0009
        Q-s-low E-s-low   Q-p-low E-p-low   Q-d-low E-d-low   Q-f-low E-f-low
:EPL004:  1.7656 -0.9521    0.0059 -0.9164   10.0000 -4.3433    0.0006 -0.9301
        Q-s-hi  E-s-hi    Q-p-hi  E-p-hi    Q-d-hi  E-d-hi    Q-f-hi  E-f-hi 
:EPH004:  0.0307 -0.2507    4.1261 -0.0641    0.0136 -0.1223    0.0018 -0.1637

                      QXX         QXY         QYY         QZZ       UP TO R
:VZZ004:             2.28108    -8.57892     3.25794    -5.53902       2.500

:CHA  : TOTAL VALENCE CHARGE INSIDE UNIT CELL =     336.000000

:SUM  : SUM OF EIGENVALUES =        -803.078077692


        1.ATOM      Pb                   19 CORE STATES
:1S 001: 1S               -6465.876381911 Ry
:2S 001: 2S               -1154.922729695 Ry
:2PP001: 2P*              -1108.913342200 Ry
:2P 001: 2P                -947.954623223 Ry
:3S 001: 3S                -276.712200142 Ry
:3PP001: 3P*               -255.986893905 Ry
:3P 001: 3P                -220.073098473 Ry
:3DD001: 3D*               -186.081442679 Ry
:3D 001: 3D                -178.441130170 Ry
:4S 001: 4S                 -62.147036562 Ry
:4PP001: 4P*                -53.182223962 Ry
:4P 001: 4P                 -44.391550826 Ry
:4DD001: 4D*                -29.810739893 Ry
:4D 001: 4D                 -28.170550405 Ry
:5S 001: 5S                  -9.922079922 Ry
:5PP001: 5P*                 -6.866921655 Ry
:5P 001: 5P                  -5.225491422 Ry
:4FF001: 4F*                 -9.298131748 Ry
:4F 001: 4F                  -8.928401543 Ry

        2.ATOM      Cs                   12 CORE STATES
       CORE-FORCE in mRy/a.u. = |F|      Fx             Fy             Fz
:FCO002:   2.ATOM      8.564793395614     -8.493899289894     -1.099709399207      0.000000000000

:1S 002: 1S               -2628.599775348 Ry
:2S 002: 2S                -411.672871772 Ry
:2PP002: 2P*               -387.235690250 Ry
:2P 002: 2P                -361.343909374 Ry
:3S 002: 3S                 -85.122612721 Ry
:3PP002: 3P*                -74.919213461 Ry
:3P 002: 3P                 -69.957340309 Ry
:3DD002: 3D*                -52.038080772 Ry
:3D 002: 3D                 -50.984749089 Ry
:4S 002: 4S                 -15.588140899 Ry
:4PP002: 4P*                -11.927286526 Ry
:4P 002: 4P                 -10.915339902 Ry

        3.ATOM      Br                    7 CORE STATES
       CORE-FORCE in mRy/a.u. = |F|      Fx             Fy             Fz
:FCO003:   3.ATOM    106.337872420360     40.469856799656     98.335821558088      0.000000000000

:1S 003: 1S                -977.961571476 Ry
:2S 003: 2S                -126.758937999 Ry
:2PP003: 2P*               -114.088981230 Ry
:2P 003: 2P                -110.597599857 Ry
:3S 003: 3S                 -16.933098287 Ry
:3PP003: 3P*                -12.528559792 Ry
:3P 003: 3P                 -12.026360343 Ry

        4.ATOM      Br                    7 CORE STATES
       CORE-FORCE in mRy/a.u. = |F|      Fx             Fy             Fz
:FCO004:   4.ATOM     77.822991639552    -22.088672413807    -47.791412871074    -57.310465314041

:1S 004: 1S                -977.961631800 Ry
:2S 004: 2S                -126.758999783 Ry
:2PP004: 2P*               -114.089042795 Ry
:2P 004: 2P                -110.597661454 Ry
:3S 004: 3S                 -16.933160831 Ry
:3PP004: 3P*                -12.528622230 Ry
:3P 004: 3P                 -12.026422748 Ry
:CINT001 Core Integral Atom   1   67.995052
:CINT002 Core Integral Atom   2   35.999909
:CINT003 Core Integral Atom   3   17.999989
:CINT004 Core Integral Atom   4   17.999989

       DENSITY AT NUCLEUS
        JATOM        VALENCE       SEMI-CORE          CORE           TOTAL
:RTO001:   1     1947.811010        0.000000  9911352.888561  9913300.699571
:RTO002:   2      320.955151        0.000000   438170.993758   438491.948910
:RTO003:   3       73.572104        0.000000    45839.118217    45912.690321
:RTO004:   4       73.557906        0.000000    45839.118205    45912.676111
     
       CHARGES OF NEW CHARGE DENSITY
:NTO   : INTERSTITIAL CHARGE =    34.197257
:NPC   : PW Pseudocharge     =   103.264081
:NTO001: CHARGE SPHERE  1    =    79.315624
:NTO002: CHARGE SPHERE  2    =    52.296476
:NTO003: CHARGE SPHERE  3    =    33.944049
:NTO004: CHARGE SPHERE  4    =    33.944727

:NEC01: NUCLEAR AND ELECTRONIC CHARGE    968.00000   967.97968
     
       CHARGES OF OLD CHARGE DENSITY
:OTO   : INTERSTITIAL CHARGE =    36.554718
:OPC   : PW Pseudocharge     =   113.536239
:OTO001: CHARGE SPHERE  1    =    79.796963
:OTO002: CHARGE SPHERE  2    =    52.317397
:OTO003: CHARGE SPHERE  3    =    33.582715
:OTO004: CHARGE SPHERE  4    =    33.582123

:NEC02: NUCLEAR AND ELECTRONIC CHARGE    968.00000   968.00000
     
       CONVERGENCE TEST
:DTO001: DIFFERENCE IN SPHERE  1 =  0.2490726
:DTO002: DIFFERENCE IN SPHERE  2 =  0.0705886
:DTO003: DIFFERENCE IN SPHERE  3 =  0.1823999
:DTO004: DIFFERENCE IN SPHERE  4 =  0.1830904

:DIS  :  CHARGE DISTANCE       ( 0.2490726 for atom    1 spin 1)      0.1736484
 PW Mixed is         2248
 
******************************************************
* MULTISECANT MIXING VER9 RELEASE 10.4.0              *
* Slow Mode, cautious                                *
* Fixed density scale                                *
* Regularization       1.000E-04                     *
* Step Trust Radius    0.75000                       *
* Trust Upper Limit    2.000E+00                     *
* Max Number of Memory Steps   12                    *
******************************************************
 
:PWTMP   3.9481E+03  2.5000E+03  5.2571E+03
:PLANE:  PW TOTAL      8.9288 DISTAN   1.03E+00  1.16E+01 %
:CHARG:  CLM/ATOM   1115.9674 DISTAN   2.07E-01  1.86E-02 %
 
Step History
        DMIX         DMIXT        Red     Pred      Trust     Lambda    MagRel    MagAbs     Beta
  1   3.5000E-02   3.5000E-02 -1.00E+00  1.00E+00 -1.00E+01  1.00E+00  3.50E-02  3.50E-02  1.00E+00
  2   2.5000E-02   2.5000E-02 -1.00E+00  1.00E+00 -1.00E+01  1.00E+00  2.50E-02  8.99E-02  1.00E+00
:JACOBIANS    4.978E-01   6.952E-05
  
:TRUST:  Step 4.30E-02  Charge 7.50E-02 (e) CTO  4.43E-01 (e) PW  6.21E-01 (e)
:DIRM :  MEMORY  1/12 SCALE   1.000
:MIX  :   PRATT  REGULARIZATION:  1.00E-04 GREED: 0.04301  Expand 1.72  0.0430                
     
       CHARGES OF MIXED CHARGE DENSITY
:CTO   : INTERSTITIAL CHARGE =    36.538144
:CPC   : PW Pseudocharge     =   108.794921
:CTO001: CHARGE SPHERE  1    =    79.793602
:CTO002: CHARGE SPHERE  2    =    52.317241
:CTO003: CHARGE SPHERE  3    =    33.585263
:CTO004: CHARGE SPHERE  4    =    33.584679

:NEC03: NUCLEAR AND ELECTRONIC CHARGE    968.00000   968.00000

PW CHANGE     H    K    L      Current       Change    Residue
:PTO001:      0    0    0  2.76452436E-02 -9.050E-04 -2.387E-03
:PTO006:     -1    0   -1 -2.44473138E-03  7.162E-05  1.244E-04
:PTO007:      0    0   -2  3.02880771E-03 -5.114E-04 -1.410E-03
:PTO008:     -1   -1    0  5.68270435E-03 -1.057E-03 -2.772E-03
:PTO009:     -1   -1   -1 -1.05764066E-02  4.128E-04  6.350E-04
:PTO012:      0   -2    0  7.19551309E-03 -8.106E-04 -1.672E-03
:PTO013:     -1   -1   -2  2.27422482E-02 -3.073E-03 -6.846E-03
:PTO014:     -2    0    0  7.13227626E-03 -8.247E-04 -1.680E-03
:PTO015:      0   -2   -1  5.81122336E-03 -2.972E-04 -6.258E-04
:PTO018:     -1   -2    0 -1.06680886E-02  3.318E-04  3.154E-04
:PTO019:     -2   -1    0  1.17280494E-02 -3.733E-04 -3.628E-04
:PTO021:     -1   -2   -1  1.22309136E-02 -3.961E-04 -3.910E-04

:ENE  : ********** TOTAL ENERGY IN Ry =      -292313.12533981

       TOTAL FORCE IN mRy/a.u. = |F|     Fx             Fy             Fz     with/without FOR in case.in2
:FOR001:   1.ATOM          0.000          0.000          0.000          0.000 partial forces
:FOR002:   2.ATOM          4.199          4.177          0.423          0.000 partial forces
:FOR003:   3.ATOM         99.553        -40.654        -90.874          0.000 partial forces
:FOR004:   4.ATOM         75.888         23.130         46.595         55.253 partial forces
       TOTAL FORCE WITH RESPECT TO GLOBAL CARTESIAN COORDINATES:
:FCA001:   1.ATOM                         0.000          0.000          0.000 partial forces
:FCA002:   2.ATOM                         4.177          0.423          0.000 partial forces
:FCA003:   3.ATOM                       -40.654        -90.874          0.000 partial forces
:FCA004:   4.ATOM                        23.130         46.595         55.253 partial forces
       TOTAL FORCE WITH RESPECT TO THE GLOBAL COORDINATE SYSTEM:
:FGL001:   1.ATOM                 0.000000000     0.000000000     0.000000000 partial forces
:FGL002:   2.ATOM                 4.177359466     0.422786058     0.000000000 partial forces
:FGL003:   3.ATOM               -40.653547935   -90.873534219     0.000000000 partial forces
:FGL004:   4.ATOM                23.129526208    46.595205695    55.252710357 partial forces
 Flat Integration
 New Mode for Coulomb Integral
 Consistent 3/8+Simpson combinations
 Extension of core to zero
 LDM version in phi
 Fifth-order quadrature in outwin


            ---------
:ITE003:  3. ITERATION
            ---------

:NATO :    4 INDEPENDENT AND   20 TOTAL ATOMS IN UNITCELL
       SUBSTANCE: blebleble                                                   

       LATTICE                      = P   
:POT  : POTENTIAL OPTION EX_PBE EC_PBE VX_PBE VC_PBE
:LAT  : LATTICE CONSTANTS= 15.19415 15.66734 22.08372    1.571    1.571    1.571
:VOL  : UNIT CELL VOLUME =    5257.07306
       MODE OF CALCULATION IS       = RELA
       NON-SPINPOLARIZED CALCULATION
:IFFT  : FFT-parameters:  120  120  180 Factor: 2.00


   CONVERGENCE PARAMETER FOR PSEUDOCHARGE: NCON=  9
   MAXIMAL VALUE OF RMT(JATOM)*ABSK(NKK) : RK  =29.99804


:VKCOUL :  VK-COUL convergence: 0.225E-08
       ATOMNUMBER=  1 Pb         VCOUL-ZERO =  0.92298E-01
:EFG001:                        EFG         =     0.03603   *10**21  V / m**2
                               V20  TOT/SRF=    -0.02116     0.00188
                               V22  TOT/SRF=     0.00754    -0.00071
                               V22M TOT/SRF=     0.02039    -0.00082
                               V21  TOT/SRF=    -0.00895     0.00315
                               V21M TOT/SRF=    -0.00676    -0.00510

              0.01975    0.02039   -0.00895        0.03603    0.00000    0.00000
              0.02039    0.00468   -0.00676        0.00000   -0.00951    0.00000
             -0.00895   -0.00676   -0.02443        0.00000    0.00000   -0.02652

         MAIN DIRECTIONS OF THE EFG   1.0000 -0.7059  0.1376
                                      0.6992  1.0000  0.1268
                                     -0.2262 -0.0297  1.0000
:ANG001:  ANGLE WITH OLD X-AXIS =        35.7

:ETA001:                         ASYMM. ETA =     0.47194


       ATOMNUMBER=  2 Cs         VCOUL-ZERO = -0.59735E-01
:EFG002:                        EFG         =     0.05845   *10**21  V / m**2
                               V20  TOT/SRF=    -0.01225    -0.00045
                               V22  TOT/SRF=     0.01030    -0.00050
                               V22M TOT/SRF=     0.05034    -0.00101
                               V21  TOT/SRF=     0.00000     0.00000
                               V21M TOT/SRF=     0.00000     0.00000

              0.01737    0.05034    0.00000        0.05845    0.00000    0.00000
              0.05034   -0.00323    0.00000        0.00000   -0.04431    0.00000
              0.00000    0.00000   -0.01414        0.00000    0.00000   -0.01414

         MAIN DIRECTIONS OF THE EFG   1.0000 -0.8161  0.0000
                                      0.8161  1.0000  0.0000
                                      0.0000  0.0000  1.0000
:ANG002:  ANGLE WITH OLD X-AXIS =        39.2

:ETA002:                         ASYMM. ETA =     0.51606


       ATOMNUMBER=  3 Br         VCOUL-ZERO =  0.27245E+00
:EFG003:                        EFG         =     0.39283   *10**21  V / m**2
                               V20  TOT/SRF=     0.34020     0.06382
                               V22  TOT/SRF=     0.02353     0.00572
                               V22M TOT/SRF=    -0.02188    -0.01135
                               V21  TOT/SRF=     0.00000     0.00000
                               V21M TOT/SRF=     0.00000     0.00000

             -0.17288   -0.02188    0.00000       -0.16428    0.00000    0.00000
             -0.02188   -0.21995    0.00000        0.00000   -0.22855    0.00000
              0.00000    0.00000    0.39283        0.00000    0.00000    0.39283

         MAIN DIRECTIONS OF THE EFG   1.0000  0.3930  0.0000
                                     -0.3930  1.0000  0.0000
                                      0.0000  0.0000  1.0000
:ANG003:  ANGLE WITH OLD X-AXIS =        21.5

:ETA003:                         ASYMM. ETA =     0.16359


       ATOMNUMBER=  4 Br         VCOUL-ZERO =  0.27251E+00
:EFG004:                        EFG         =     0.37151   *10**21  V / m**2
                               V20  TOT/SRF=    -0.15383    -0.02760
                               V22  TOT/SRF=    -0.01839    -0.00450
                               V22M TOT/SRF=    -0.28080    -0.05252
                               V21  TOT/SRF=    -0.03151    -0.00408
                               V21M TOT/SRF=     0.00694     0.00787

              0.07043   -0.28080   -0.03151        0.37151    0.00000    0.00000
             -0.28080    0.10720    0.00694        0.00000   -0.20523    0.00000
             -0.03151    0.00694   -0.17763        0.00000    0.00000   -0.16628

         MAIN DIRECTIONS OF THE EFG  -0.9396  1.0000 -0.4726
                                      1.0000  0.8783 -0.5106
                                      0.0666  0.9211  1.0000
:ANG004:  ANGLE WITH OLD X-AXIS =       130.3

:ETA004:                         ASYMM. ETA =     0.10484


     HELLMANN-FEYNMAN-FORCE IN mRy/a.u. = |F|  Fx       Fy             Fz
:FHF001:   1.ATOM      0.000000000000      0.000000000000      0.000000000000      0.000000000000

     HELLMANN-FEYNMAN-FORCE IN mRy/a.u. = |F|  Fx       Fy             Fz
:FHF002:   2.ATOM     12.637346673888     12.499977141950      1.858252514260      0.000000000000

     HELLMANN-FEYNMAN-FORCE IN mRy/a.u. = |F|  Fx       Fy             Fz
:FHF003:   3.ATOM    202.057943837132    -77.956631797194   -186.413991498832      0.000000000000

     HELLMANN-FEYNMAN-FORCE IN mRy/a.u. = |F|  Fx       Fy             Fz
:FHF004:   4.ATOM    148.168323909240     42.462629813372     90.899281865066    109.032554018611

:FIT001: LUSE= 13 SIGMA OF V-XC FIT FOR ATOM  1  0.7733989E-03
:FIT001: LUSE= 13 SIGMA OF V-XC FIT FOR ATOM  1  0.7733989E-03
:FIT002: LUSE= 13 SIGMA OF V-XC FIT FOR ATOM  2  0.1723435E-04
:FIT002: LUSE= 13 SIGMA OF V-XC FIT FOR ATOM  2  0.1723435E-04
:FIT003: LUSE= 13 SIGMA OF V-XC FIT FOR ATOM  3  0.7129165E-03
:FIT003: LUSE= 13 SIGMA OF V-XC FIT FOR ATOM  3  0.7129165E-03
:FIT004: LUSE= 13 SIGMA OF V-XC FIT FOR ATOM  4  0.6337930E-03
:FIT004: LUSE= 13 SIGMA OF V-XC FIT FOR ATOM  4  0.6337930E-03
:DEN  : DENSITY INTEGRAL  =       -114050.65983815   (Ry)
       ELS_POTENTIAL_AT Z=0 and Z=0.5:  -0.53566  -0.53566
       ELS_POTENTIAL_AT Y=0 and Y=0.5:  -0.44805  -0.44805
:VZERO:v0,v0c,v0x  -1.24771  -0.53566  -0.71205 v5,v5c,v5x  -1.24771  -0.53566  -0.71205
:VZERY:v0,v0c,v0x  -1.07993  -0.44805  -0.63188 v5,v5c,v5x  -1.07993  -0.44805  -0.63188
:VZERX:v0,v0c,v0x  -1.07239  -0.44700  -0.62540 v5,v5c,v5x  -1.07239  -0.44700  -0.62540
:LMAX-WF:   10   Non-Spherical LMAX:   4

          ATOMIC SPHERE DEPENDENT PARAMETERS FOR ATOM  Pb        
:e__0001: OVERALL ENERGY PARAMETER IS    0.0016
          OVERALL BASIS SET ON ATOM IS LAPW
:E2_0001: E( 2)=    0.4016
             APW+lo
:E2_0001: E( 2)=   -0.9573   E(BOTTOM)=   -1.194   E(TOP)=   -0.720  2  3   127
             LOCAL ORBITAL
:E0_0001: E( 0)=    0.0016
             APW+lo
:E1_0001: E( 1)=    0.0016
             APW+lo

          ATOMIC SPHERE DEPENDENT PARAMETERS FOR ATOM  Cs        
:e__0002: OVERALL ENERGY PARAMETER IS    0.0016
          OVERALL BASIS SET ON ATOM IS LAPW
:E2_0002: E( 2)=    0.0016
             APW+lo
:E2_0002: E( 2)=   -4.8680   E(BOTTOM)=   -4.880   E(TOP)=   -4.856  1  2   118
             LOCAL ORBITAL
:E0_0002: E( 0)=    0.4016
             APW+lo
:E0_0002: E( 0)=   -1.3766   E(BOTTOM)=   -2.059   E(TOP)=   -0.694  4  5   165
             LOCAL ORBITAL
:E1_0002: E( 1)=    0.4016
             APW+lo
:E1_0002: E( 1)=   -0.2037   E(BOTTOM)=   -1.176   E(TOP)=    0.768  3  4   197
             LOCAL ORBITAL

          ATOMIC SPHERE DEPENDENT PARAMETERS FOR ATOM  Br        
:e__0003: OVERALL ENERGY PARAMETER IS    0.0016
          OVERALL BASIS SET ON ATOM IS LAPW
:E2_0003: E( 2)=    0.0016
             APW+lo
:E2_0003: E( 2)=   -4.3451   E(BOTTOM)=   -4.348   E(TOP)=   -4.342  1  1   122
             LOCAL ORBITAL
:E0_0003: E( 0)=    0.4016
             APW+lo
:E0_0003: E( 0)=   -0.9523   E(BOTTOM)=   -1.518   E(TOP)=   -0.386  3  4   154
             LOCAL ORBITAL
:E1_0003: E( 1)=    0.0016
             APW+lo

          ATOMIC SPHERE DEPENDENT PARAMETERS FOR ATOM  Br        
:e__0004: OVERALL ENERGY PARAMETER IS    0.0016
          OVERALL BASIS SET ON ATOM IS LAPW
:E2_0004: E( 2)=    0.0016
             APW+lo
:E2_0004: E( 2)=   -4.3451   E(BOTTOM)=   -4.348   E(TOP)=   -4.342  1  1   121
             LOCAL ORBITAL
:E0_0004: E( 0)=    0.4016
             APW+lo
:E0_0004: E( 0)=   -0.9523   E(BOTTOM)=   -1.518   E(TOP)=   -0.386  3  4   155
             LOCAL ORBITAL
:E1_0004: E( 1)=    0.0016
             APW+lo

       K=   0.03125   0.03125   0.04545            1
:RKM  : MATRIX SIZE  2239LOs: 308  RKM= 7.00  WEIGHT= 8.00  PGR:    
       EIGENVALUES ARE:
:EIG00001:      -4.8652415   -4.8652267   -4.8652241   -4.8652177   -4.8652146
:EIG00006:      -4.8652111   -4.8652108   -4.8652036   -4.8652035   -4.8651992
:EIG00011:      -4.8651915   -4.8651899   -4.8651799   -4.8651725   -4.8651632
:EIG00016:      -4.8651511   -4.8651467   -4.8651324   -4.8651185   -4.8651113
:EIG00021:      -4.3449807   -4.3449764   -4.3449750   -4.3449679   -4.3449549
:EIG00026:      -4.3449487   -4.3449454   -4.3449405   -4.3449393   -4.3449364
:EIG00031:      -4.3449336   -4.3449276   -4.3446889   -4.3446756   -4.3446729
:EIG00036:      -4.3446699   -4.3446205   -4.3446173   -4.3446110   -4.3446059
:EIG00041:      -4.3446026   -4.3445994   -4.3445967   -4.3445851   -4.3445617
:EIG00046:      -4.3445573   -4.3445453   -4.3445350   -4.3445295   -4.3445268
 
:EIG00051:      -4.3445212   -4.3445171   -4.3443952   -4.3443905   -4.3443872
:EIG00056:      -4.3443779   -4.3439532   -4.3439516   -4.3439434   -4.3439432
:EIG00061:      -4.3439331   -4.3439319   -4.3439289   -4.3439241   -4.3439121
:EIG00066:      -4.3439031   -4.3438969   -4.3438944   -4.3438923   -4.3438914
:EIG00071:      -4.3438898   -4.3438836   -4.3438820   -4.3438810   -4.3438798
:EIG00076:      -4.3438747   -4.3438268   -4.3438223   -4.3438204   -4.3438151
:EIG00081:      -1.3827119   -1.3825476   -1.3823634   -1.3822596   -0.9783478
:EIG00086:      -0.9780618   -0.9780008   -0.9768231   -0.9753303   -0.9721498
:EIG00091:      -0.9537347   -0.9536130   -0.9533095   -0.9530620   -0.9527793
:EIG00096:      -0.9523492   -0.9237959   -0.9236312   -0.9233469   -0.9170647
 
:EIG00101:      -0.9170150   -0.9168995   -0.9167889   -0.9167848   -0.9166771
:EIG00106:      -0.9163144   -0.9162777   -0.9161297   -0.9160404   -0.9159755
:EIG00111:      -0.9156929   -0.9113381   -0.8978830   -0.8854191   -0.8851566
:EIG00116:      -0.8846622   -0.4245675   -0.4238989   -0.4221740   -0.4216177
:EIG00121:      -0.4200397   -0.4195906   -0.4193492   -0.4178082   -0.4177551
:EIG00126:      -0.4175294   -0.4171754   -0.4163326   -0.4153271   -0.3807040
:EIG00131:      -0.3403032   -0.2785054   -0.1569904   -0.1566414   -0.1549749
:EIG00136:      -0.1489251   -0.1480229   -0.1389159   -0.1053286   -0.0871089
:EIG00141:      -0.0840058   -0.0828167   -0.0814733   -0.0743004   -0.0645720
:EIG00146:      -0.0594135   -0.0580580   -0.0548143   -0.0523932   -0.0501999
 
:EIG00151:      -0.0479879   -0.0464174   -0.0459379   -0.0445533   -0.0376491
:EIG00156:      -0.0336856   -0.0334517   -0.0329836   -0.0303684   -0.0291644
:EIG00161:      -0.0278991   -0.0256776   -0.0238794   -0.0235643   -0.0065989
:EIG00166:       0.0477166    0.0959279    0.1501831    0.3253489    0.3280572
:EIG00171:       0.3321247    0.3581192    0.3711069    0.3886889    0.3937513
:EIG00176:       0.4741984    0.4802915    0.4873811    0.4915751    0.5222029
:EIG00181:       0.5229367    0.5275553    0.5349807    0.5392610    0.5401341
:EIG00186:       0.5419220    0.5483761    0.5513291    0.5642337    0.5682377
:EIG00191:       0.5713693    0.5767122    0.5916810    0.5934033    0.5970251
:EIG00196:       0.6035052    0.6064556    0.6102347    0.6118584    0.6199718
 
:EIG00201:       0.6274112    0.6313996    0.6434990    0.6491599    0.6515057
:EIG00206:       0.6662995    0.6697097    0.6819499    0.6879515    0.6941330
:EIG00211:       0.7069888    0.7252837    0.7324911    0.7448839    0.7493085
:EIG00216:       0.7510585    0.7538143    0.7589643    0.7708217    0.7788361
:EIG00221:       0.7794802    0.7837942    0.7862041    0.8266848    0.8468225
:EIG00226:       0.8509492    0.8522108    0.8558446    0.8589488    0.8595786
:EIG00231:       0.8634522    0.8749203    0.8860580    0.8875890    0.9000894
:EIG00236:       0.9196403    0.9299629    0.9421849    0.9487386    0.9521033
:EIG00241:       0.9535746    0.9592264    0.9743925    0.9769469    0.9876191
:EIG00246:       0.9893966    1.0045758    1.0080840    1.0100969    1.0129220
 
:EIG00251:       1.0186565    1.0211328    1.0367692    1.0480794    1.0550468
:EIG00256:       1.0652174    1.0766840    1.0819401    1.0835413    1.0868752
:EIG00261:       1.0878684    1.0940752    1.0968924    1.0987678    1.1035865
:EIG00266:       1.1097897    1.1129990    1.1199972    1.1241088    1.1273505
:EIG00271:       1.1290893    1.1344496    1.1402052    1.1431371    1.1528715
:EIG00276:       1.1580345    1.1615519    1.1646783    1.1691314    1.1696412
:EIG00281:       1.1722399    1.1774782    1.1802677    1.1849530    1.1852498
:EIG00286:       1.1876345    1.1922934    1.1991275    1.2130687    1.2166773
:EIG00291:       1.2197515    1.2220563    1.2238682    1.2298571    1.2352856
:EIG00296:       1.2381419    1.2411732    1.2454107    1.2511139    1.2552434
 
:EIG00301:       1.2637451    1.2665008    1.2753931    1.2817330    1.2819215
:EIG00306:       1.2941909    1.3024794    1.3067512    1.3115402    1.3155086
:EIG00311:       1.3165561    1.3368500    1.3382868    1.3443238    1.3520876
:EIG00316:       1.3609103    1.3663849    1.3744143    1.3782808    1.3833751
:EIG00321:       1.3860519    1.3950274    1.4046549    1.4085397    1.4143752
:EIG00326:       1.4286059    1.4313956    1.4342644    1.4372732    1.4399067
:EIG00331:       1.4457529    1.4482165    1.4503164    1.4555942    1.4650137
:EIG00336:       1.4660630    1.4721883    1.4758454    1.4822021    1.4854978
:EIG00341:       1.4925731    1.4971535    1.5014822    1.5032292    1.5064577
:EIG00346:       1.5149376    1.5173192    1.5206477    1.5222582    1.5275483
 
:EIG00351:       1.5347795    1.5408983    1.5468843    1.5476741    1.5494001
:EIG00356:       1.5607608    1.5654991    1.5722221    1.5801166    1.5817242
:EIG00361:       1.5877511    1.5960340    1.6095738    1.6115162    1.6282426
:EIG00366:       1.6300345    1.6368795    1.6390722    1.6478410    1.6541877
:EIG00371:       1.6545565    1.6602583    1.6646331    1.6718990    1.6773629
:EIG00376:       1.6788593    1.6842555    1.6865680    1.6952213
       ********************************************************

:KPT   :      NUMBER OF K-POINTS:   384
       Insulator, EF-inconsistency corrected
:GAP (global)   :  0.175166 Ry =     2.383 eV (accurate value if proper k-mesh)
         Bandranges (emin - emax) and occupancy:
:BAN00158: 158   -0.042102   -0.031042  2.00000000
:BAN00159: 159   -0.039329   -0.030368  2.00000000
:BAN00160: 160   -0.039247   -0.029164  2.00000000
:BAN00161: 161   -0.035541   -0.027786  2.00000000
:BAN00162: 162   -0.034165   -0.024958  2.00000000
:BAN00163: 163   -0.029390   -0.019646  2.00000000
:BAN00164: 164   -0.029390   -0.019518  2.00000000
:BAN00165: 165   -0.006599    0.056288  2.00000000
:BAN00166: 166    0.002809    0.059404  2.00000000
:BAN00167: 167    0.034248    0.111420  2.00000000
:BAN00168: 168    0.034948    0.150183  2.00000000
:BAN00169: 169    0.325349    0.424627  0.00000000
:BAN00170: 170    0.328057    0.424627  0.00000000
:BAN00171: 171    0.332125    0.436780  0.00000000
:BAN00172: 172    0.350453    0.436780  0.00000000
:BAN00173: 173    0.366537    0.452332  0.00000000
        Energy to separate low and high energystates:   -0.47457


:NOE  : NUMBER OF ELECTRONS          =  336.000

:FER  : F E R M I - ENERGY(TETRAH.M.)=   0.1501830535
:GMA  : POTENTIAL AND CHARGE CUT-OFF  12.00 Ry**.5

:POS001: ATOM   -1 X,Y,Z = 0.50000 0.50000 0.50000  MULT= 4  ZZ= 82.000  Pb        

       LMMAX 28
       LM=   0 0  2 0  2 1 -2 1  2 2 -2 2  4 0  4 1 -4 1  4 2 -4 2  4 3 -4 3  4 4 -4 4  6 0  6 1
        -6 1  6 2 -6 2  6 3 -6 3  6 4 -6 4  6 5 -6 5  6 6 -6 6

:CHA001: TOTAL VALENCE CHARGE INSIDE SPHERE   1 =  11.3233    (RMT=  2.5000 )
:PCS001: PARTIAL CHARGES SPHERE =  1 S,P,D,F,PX,PY,PZ,D-Z2,D-X2Y2,D-XY,D-XZ,D-YZ 
:QTL001: 1.3326 0.2711 9.7047 0.0126 0.0895 0.0902 0.0914 1.9488 1.9370 1.9474 1.9361 1.9354
        Q-s-low E-s-low   Q-p-low E-p-low   Q-d-low E-d-low   Q-f-low E-f-low
:EPL001:  0.0185 -0.9602    0.0089 -0.9517    9.6299 -0.9184    0.0010 -0.9617
        Q-s-hi  E-s-hi    Q-p-hi  E-p-hi    Q-d-hi  E-d-hi    Q-f-hi  E-f-hi 
:EPH001:  1.3141 -0.2347    0.2622 -0.0991    0.0748 -0.0635    0.0115 -0.0651

                      QXX         QXY         QYY         QZZ       UP TO R
:VZZ001:             0.65277     0.66992     0.14007    -0.79284       2.500

:POS002: ATOM   -2 X,Y,Z = 0.48491 0.94655 0.25000  MULT= 4  ZZ= 55.000  Cs        

       LMMAX 28
       LM=   0 0  1 1 -1 1  2 0  2 2 -2 2  3 1 -3 1  3 3 -3 3  4 0  4 2 -4 2  4 4 -4 4  5 1 -5 1
         5 3 -5 3  5 5 -5 5  6 0  6 2 -6 2  6 4 -6 4  6 6 -6 6

:CHA002: TOTAL VALENCE CHARGE INSIDE SPHERE   2 =  16.2972    (RMT=  2.5000 )
:PCS002: PARTIAL CHARGES SPHERE =  2 S,P,D,F,PX,PY,PZ,D-Z2,D-X2Y2,D-XY,D-XZ,D-YZ 
:QTL002: 1.7962 4.489410.0095 0.0018 1.4957 1.4966 1.4971 2.0014 2.0023 2.0011 2.0020 2.0027
        Q-s-low E-s-low   Q-p-low E-p-low   Q-d-low E-d-low   Q-f-low E-f-low
:EPL002:  1.7867 -1.3821    0.0022 -0.9511    9.9946 -4.8651    0.0001 -1.0290
        Q-s-hi  E-s-hi    Q-p-hi  E-p-hi    Q-d-hi  E-d-hi    Q-f-hi  E-f-hi 
:EPH002:  0.0095 -0.0831    4.4872 -0.4067    0.0149 -0.0580    0.0017 -0.0510

                      QXX         QXY         QYY         QZZ       UP TO R
:VZZ002:             0.56080     1.62496    -0.11580    -0.44501       2.500

:POS003: ATOM   -3 X,Y,Z = 0.56000 0.50750 0.25000  MULT= 4  ZZ= 35.000  Br        

       LMMAX 28
       LM=   0 0  1 1 -1 1  2 0  2 2 -2 2  3 1 -3 1  3 3 -3 3  4 0  4 2 -4 2  4 4 -4 4  5 1 -5 1
         5 3 -5 3  5 5 -5 5  6 0  6 2 -6 2  6 4 -6 4  6 6 -6 6

:CHA003: TOTAL VALENCE CHARGE INSIDE SPHERE   3 =  15.9413    (RMT=  2.5000 )
:PCS003: PARTIAL CHARGES SPHERE =  3 S,P,D,F,PX,PY,PZ,D-Z2,D-X2Y2,D-XY,D-XZ,D-YZ 
:QTL003: 1.7963 4.128110.0140 0.0024 1.3955 1.3995 1.3330 2.0109 2.0004 2.0002 2.0017 2.0010
        Q-s-low E-s-low   Q-p-low E-p-low   Q-d-low E-d-low   Q-f-low E-f-low
:EPL003:  1.7648 -0.9533    0.0061 -0.9215   10.0001 -4.3438    0.0006 -0.9317
        Q-s-hi  E-s-hi    Q-p-hi  E-p-hi    Q-d-hi  E-d-hi    Q-f-hi  E-f-hi 
:EPH003:  0.0315 -0.2533    4.1220 -0.0654    0.0140 -0.1224    0.0018 -0.1718

                      QXX         QXY         QYY         QZZ       UP TO R
:VZZ003:            -5.44099    -0.34450    -6.68047    12.12146       2.500

:POS004: ATOM   -4 X,Y,Z = 0.19962 0.70227 0.46752  MULT= 8  ZZ= 35.000  Br        

       LMMAX 49

:CHA004: TOTAL VALENCE CHARGE INSIDE SPHERE   4 =  15.9420    (RMT=  2.5000 )
:PCS004: PARTIAL CHARGES SPHERE =  4 S,P,D,F,PX,PY,PZ,D-Z2,D-X2Y2,D-XY,D-XZ,D-YZ 
:QTL004: 1.7961 4.129410.0136 0.0024 1.3680 1.3648 1.3966 2.0027 2.0019 2.0073 2.0008 2.0009
        Q-s-low E-s-low   Q-p-low E-p-low   Q-d-low E-d-low   Q-f-low E-f-low
:EPL004:  1.7653 -0.9532    0.0059 -0.9205   10.0000 -4.3438    0.0006 -0.9343
        Q-s-hi  E-s-hi    Q-p-hi  E-p-hi    Q-d-hi  E-d-hi    Q-f-hi  E-f-hi 
:EPH004:  0.0308 -0.2538    4.1236 -0.0653    0.0136 -0.1249    0.0018 -0.1664

                      QXX         QXY         QYY         QZZ       UP TO R
:VZZ004:             2.30683    -8.65595     3.28770    -5.59453       2.500

:CHA  : TOTAL VALENCE CHARGE INSIDE UNIT CELL =     336.000000

:SUM  : SUM OF EIGENVALUES =        -803.615694681


        1.ATOM      Pb                   19 CORE STATES
:1S 001: 1S               -6465.881675062 Ry
:2S 001: 2S               -1154.927894798 Ry
:2PP001: 2P*              -1108.918534580 Ry
:2P 001: 2P                -947.959795352 Ry
:3S 001: 3S                -276.717209796 Ry
:3PP001: 3P*               -255.991914997 Ry
:3P 001: 3P                -220.078102159 Ry
:3DD001: 3D*               -186.086469626 Ry
:3D 001: 3D                -178.446151173 Ry
:4S 001: 4S                 -62.151882898 Ry
:4PP001: 4P*                -53.187070209 Ry
:4P 001: 4P                 -44.396375465 Ry
:4DD001: 4D*                -29.815561477 Ry
:4D 001: 4D                 -28.175364942 Ry
:5S 001: 5S                  -9.926650848 Ry
:5PP001: 5P*                 -6.871460915 Ry
:5P 001: 5P                  -5.229979463 Ry
:4FF001: 4F*                 -9.302933607 Ry
:4F 001: 4F                  -8.933199485 Ry

        2.ATOM      Cs                   12 CORE STATES
       CORE-FORCE in mRy/a.u. = |F|      Fx             Fy             Fz
:FCO002:   2.ATOM      8.486931823747     -8.384385088760     -1.315332073779      0.000000000000

:1S 002: 1S               -2628.602400555 Ry
:2S 002: 2S                -411.675394742 Ry
:2PP002: 2P*               -387.238233160 Ry
:2P 002: 2P                -361.346445650 Ry
:3S 002: 3S                 -85.125001775 Ry
:3PP002: 3P*                -74.921608391 Ry
:3P 002: 3P                 -69.959729661 Ry
:3DD002: 3D*                -52.040484057 Ry
:3D 002: 3D                 -50.987150312 Ry
:4S 002: 4S                 -15.590421659 Ry
:4PP002: 4P*                -11.929563575 Ry
[...]
:EIG00141:      -0.0559777   -0.0550912   -0.0538969   -0.0478935   -0.0386504
:EIG00146:      -0.0282683   -0.0274970   -0.0266533   -0.0237936   -0.0220410
 
:EIG00151:      -0.0213967   -0.0190158   -0.0157883   -0.0146301   -0.0143482
:EIG00156:      -0.0137030   -0.0124073   -0.0057514    0.0004893    0.0016153
:EIG00161:       0.0034495    0.0077318    0.0107563    0.0133009    0.0248355
:EIG00166:       0.0415222    0.0795855    0.1265182    0.2667012    0.2677790
:EIG00171:       0.2759874    0.2981697    0.3109089    0.3272478    0.4067232
:EIG00176:       0.4853903    0.4875374    0.4917247    0.4967508    0.5016411
:EIG00181:       0.5044152    0.5072263    0.5203907    0.5271142    0.5353851
:EIG00186:       0.5398047    0.5437737    0.5444711    0.5498198    0.5521835
:EIG00191:       0.5571692    0.5594048    0.5654879    0.5791159    0.5838274
:EIG00196:       0.5865903    0.6083831    0.6112881    0.6138703    0.6226318
 
:EIG00201:       0.6243015    0.6269568    0.6371925    0.6477365    0.6499232
:EIG00206:       0.6678183    0.6716196    0.6750314    0.6891785    0.6986085
:EIG00211:       0.7107044    0.7193792    0.7343411    0.7370483    0.7472470
:EIG00216:       0.7500913    0.7553668    0.7662445    0.7741287    0.7857898
:EIG00221:       0.7879363    0.7914704    0.7939201    0.8200265    0.8405601
:EIG00226:       0.8431442    0.8505859    0.8512169    0.8546521    0.8593601
:EIG00231:       0.8659183    0.8719334    0.8739976    0.8830256    0.9038002
:EIG00236:       0.9200527    0.9251436    0.9345005    0.9450068    0.9479762
:EIG00241:       0.9532707    0.9574045    0.9605075    0.9775266    0.9806692
:EIG00246:       0.9842599    0.9858680    1.0029177    1.0103067    1.0121020
 
:EIG00251:       1.0143270    1.0153772    1.0336055    1.0436747    1.0510425
:EIG00256:       1.0536504    1.0680748    1.0736858    1.0806772    1.0824145
:EIG00261:       1.0847200    1.0934287    1.0976228    1.1010748    1.1031653
:EIG00266:       1.1069687    1.1106783    1.1179179    1.1210829    1.1265473
:EIG00271:       1.1279572    1.1320065    1.1404688    1.1438304    1.1492768
:EIG00276:       1.1561270    1.1585747    1.1604672    1.1640555    1.1673196
:EIG00281:       1.1706803    1.1734050    1.1747197    1.1786562    1.1802705
:EIG00286:       1.1849587    1.1903550    1.1951784    1.2074838    1.2128228
:EIG00291:       1.2158767    1.2171996    1.2241850    1.2284280    1.2342919
:EIG00296:       1.2378904    1.2393314    1.2434097    1.2505563    1.2528332
 
:EIG00301:       1.2596454    1.2619994    1.2680746    1.2760592    1.2799657
:EIG00306:       1.2877880    1.2960723    1.2991106    1.3009138    1.3039584
:EIG00311:       1.3119137    1.3288128    1.3309349    1.3342856    1.3441448
:EIG00316:       1.3483752    1.3583759    1.3664634    1.3744205    1.3787634
:EIG00321:       1.3849732    1.3895778    1.3929070    1.4004395    1.4021401
:EIG00326:       1.4175499    1.4203619    1.4227101    1.4299801    1.4303414
:EIG00331:       1.4349741    1.4399843    1.4428037    1.4464233    1.4538538
:EIG00336:       1.4624962    1.4690948    1.4781316    1.4811456    1.4826340
:EIG00341:       1.4854447    1.4873015    1.4881961    1.4977462    1.5014347
:EIG00346:       1.5097854    1.5167074    1.5212786    1.5246951    1.5260324
 
:EIG00351:       1.5305645    1.5350081    1.5397473    1.5426799    1.5502033
:EIG00356:       1.5587772    1.5604567    1.5631718    1.5737592    1.5799023
:EIG00361:       1.5849534    1.5875254    1.6094765    1.6110935    1.6184651
:EIG00366:       1.6206208
       ********************************************************

:KPT   :      NUMBER OF K-POINTS:   384
       Insulator, EF-inconsistency corrected
:GAP (global)   :  0.140183 Ry =     1.907 eV (accurate value if proper k-mesh)
         Bandranges (emin - emax) and occupancy:
:BAN00158: 158   -0.010732    0.000985  2.00000000
:BAN00159: 159   -0.010223    0.002083  2.00000000
:BAN00160: 160   -0.009699    0.002083  2.00000000
:BAN00161: 161   -0.008394    0.005502  2.00000000
:BAN00162: 162   -0.008238    0.007732  2.00000000
:BAN00163: 163    0.003548    0.013384  2.00000000
:BAN00164: 164    0.003548    0.013534  2.00000000
:BAN00165: 165    0.017217    0.044351  2.00000000
:BAN00166: 166    0.019947    0.048563  2.00000000
:BAN00167: 167    0.024432    0.090015  2.00000000
:BAN00168: 168    0.024432    0.126518  2.00000000
:BAN00169: 169    0.266701    0.382009  0.00000000
:BAN00170: 170    0.267779    0.382009  0.00000000
:BAN00171: 171    0.275987    0.397727  0.00000000
:BAN00172: 172    0.293162    0.397727  0.00000000
:BAN00173: 173    0.306719    0.408356  0.00000000
        Energy to separate low and high energystates:   -0.21389


:NOE  : NUMBER OF ELECTRONS          =  336.000

:FER  : F E R M I - ENERGY(TETRAH.M.)=   0.1265181508
:GMA  : POTENTIAL AND CHARGE CUT-OFF  12.00 Ry**.5

:POS001: ATOM   -1 X,Y,Z = 0.50000 0.50000 0.50000  MULT= 4  ZZ= 82.000  Pb        

       LMMAX 28
       LM=   0 0  2 0  2 1 -2 1  2 2 -2 2  4 0  4 1 -4 1  4 2 -4 2  4 3 -4 3  4 4 -4 4  6 0  6 1
        -6 1  6 2 -6 2  6 3 -6 3  6 4 -6 4  6 5 -6 5  6 6 -6 6

:CHA001: TOTAL VALENCE CHARGE INSIDE SPHERE   1 =  11.5214    (RMT=  2.5000 )
:PCS001: PARTIAL CHARGES SPHERE =  1 S,P,D,F,PX,PY,PZ,D-Z2,D-X2Y2,D-XY,D-XZ,D-YZ 
:QTL001: 1.3766 0.3923 9.7353 0.0147 0.1303 0.1309 0.1311 1.9553 1.9427 1.9541 1.9419 1.9413
        Q-s-low E-s-low   Q-p-low E-p-low   Q-d-low E-d-low   Q-f-low E-f-low
:EPL001:  1.0870 -0.4650    0.0162 -0.7973    9.6678 -1.0789    0.0015 -0.8526
        Q-s-hi  E-s-hi    Q-p-hi  E-p-hi    Q-d-hi  E-d-hi    Q-f-hi  E-f-hi 
:EPH001:  0.2897  0.0275    0.3760 -0.0995    0.0676 -0.0370    0.0133 -0.0398

                      QXX         QXY         QYY         QZZ       UP TO R
:VZZ001:             0.37977     0.73640    -0.14592    -0.23385       2.500

:POS002: ATOM   -2 X,Y,Z = 0.48491 0.94655 0.25000  MULT= 4  ZZ= 55.000  Cs        

       LMMAX 28
       LM=   0 0  1 1 -1 1  2 0  2 2 -2 2  3 1 -3 1  3 3 -3 3  4 0  4 2 -4 2  4 4 -4 4  5 1 -5 1
         5 3 -5 3  5 5 -5 5  6 0  6 2 -6 2  6 4 -6 4  6 6 -6 6

:CHA002: TOTAL VALENCE CHARGE INSIDE SPHERE   2 =  16.3232    (RMT=  2.5000 )
:PCS002: PARTIAL CHARGES SPHERE =  2 S,P,D,F,PX,PY,PZ,D-Z2,D-X2Y2,D-XY,D-XZ,D-YZ 
:QTL002: 1.7981 4.510610.0124 0.0020 1.5026 1.5036 1.5043 2.0019 2.0029 2.0016 2.0025 2.0034
        Q-s-low E-s-low   Q-p-low E-p-low   Q-d-low E-d-low   Q-f-low E-f-low
:EPL002:  1.7880 -1.3990    4.3813 -0.4331    9.9947 -4.8857    0.0001 -0.9197
        Q-s-hi  E-s-hi    Q-p-hi  E-p-hi    Q-d-hi  E-d-hi    Q-f-hi  E-f-hi 
:EPH002:  0.0101 -0.0523    0.1292 -0.0396    0.0177 -0.0261    0.0019 -0.0176

                      QXX         QXY         QYY         QZZ       UP TO R
:VZZ002:             0.78387     2.19228    -0.08164    -0.70223       2.500

:POS003: ATOM   -3 X,Y,Z = 0.56000 0.50750 0.25000  MULT= 4  ZZ= 35.000  Br        

       LMMAX 28
       LM=   0 0  1 1 -1 1  2 0  2 2 -2 2  3 1 -3 1  3 3 -3 3  4 0  4 2 -4 2  4 4 -4 4  5 1 -5 1
         5 3 -5 3  5 5 -5 5  6 0  6 2 -6 2  6 4 -6 4  6 6 -6 6

:CHA003: TOTAL VALENCE CHARGE INSIDE SPHERE   3 =  15.7598    (RMT=  2.5000 )
:PCS003: PARTIAL CHARGES SPHERE =  3 S,P,D,F,PX,PY,PZ,D-Z2,D-X2Y2,D-XY,D-XZ,D-YZ 
:QTL003: 1.7829 3.959310.0141 0.0029 1.3527 1.3593 1.2474 2.0105 2.0003 2.0002 2.0019 2.0012
        Q-s-low E-s-low   Q-p-low E-p-low   Q-d-low E-d-low   Q-f-low E-f-low
:EPL003:  1.7707 -0.9057    0.0871 -0.4832   10.0046 -4.2857    0.0014 -0.6847
        Q-s-hi  E-s-hi    Q-p-hi  E-p-hi    Q-d-hi  E-d-hi    Q-f-hi  E-f-hi 
:EPH003:  0.0122 -0.0537    3.8722 -0.0344    0.0095 -0.0265    0.0015 -0.0675

                      QXX         QXY         QYY         QZZ       UP TO R
:VZZ003:            -9.13085    -0.26857   -11.05921    20.19006       2.500

:POS004: ATOM   -4 X,Y,Z = 0.19962 0.70227 0.46752  MULT= 8  ZZ= 35.000  Br        

       LMMAX 49

:CHA004: TOTAL VALENCE CHARGE INSIDE SPHERE   4 =  15.7587    (RMT=  2.5000 )
:PCS004: PARTIAL CHARGES SPHERE =  4 S,P,D,F,PX,PY,PZ,D-Z2,D-X2Y2,D-XY,D-XZ,D-YZ 
:QTL004: 1.7828 3.958810.0137 0.0028 1.3050 1.2996 1.3542 2.0026 2.0021 2.0071 2.0009 2.0010
        Q-s-low E-s-low   Q-p-low E-p-low   Q-d-low E-d-low   Q-f-low E-f-low
:EPL004:  1.7707 -0.9045    0.0847 -0.4826   10.0045 -4.2848    0.0014 -0.6870
        Q-s-hi  E-s-hi    Q-p-hi  E-p-hi    Q-d-hi  E-d-hi    Q-f-hi  E-f-hi 
:EPH004:  0.0120 -0.0554    3.8742 -0.0335    0.0092 -0.0289    0.0015 -0.0635

                      QXX         QXY         QYY         QZZ       UP TO R
:VZZ004:             3.99620   -14.39182     5.56822    -9.56442       2.500

:CHA  : TOTAL VALENCE CHARGE INSIDE UNIT CELL =     336.000000

:SUM  : SUM OF EIGENVALUES =        -802.946087669


        1.ATOM      Pb                   19 CORE STATES
:1S 001: 1S               -6466.070335418 Ry
:2S 001: 2S               -1155.106215659 Ry
:2PP001: 2P*              -1109.098920171 Ry
:2P 001: 2P                -948.138657293 Ry
:3S 001: 3S                -276.887536126 Ry
:3PP001: 3P*               -256.162749221 Ry
:3P 001: 3P                -220.248277296 Ry
:3DD001: 3D*               -186.257264370 Ry
:3D 001: 3D                -178.616693284 Ry
:4S 001: 4S                 -62.319092860 Ry
:4PP001: 4P*                -53.354310710 Ry
:4P 001: 4P                 -44.563429229 Ry
:4DD001: 4D*                -29.982496287 Ry
:4D 001: 4D                 -28.342223534 Ry
:5S 001: 5S                 -10.092643471 Ry
:5PP001: 5P*                 -7.037717425 Ry
:5P 001: 5P                  -5.396456990 Ry
:4FF001: 4F*                 -9.469361836 Ry
:4F 001: 4F                  -9.099597659 Ry

        2.ATOM      Cs                   12 CORE STATES
       CORE-FORCE in mRy/a.u. = |F|      Fx             Fy             Fz
:FCO002:   2.ATOM      6.476041659721     -6.273790580763      1.605822943902      0.000000000000

:1S 002: 1S               -2628.651967654 Ry
:2S 002: 2S                -411.714984766 Ry
:2PP002: 2P*               -387.279726355 Ry
:2P 002: 2P                -361.387305139 Ry
:3S 002: 3S                 -85.153308115 Ry
:3PP002: 3P*                -74.950385026 Ry
:3P 002: 3P                 -69.988082076 Ry
:3DD002: 3D*                -52.069831409 Ry
:3D 002: 3D                 -51.016334361 Ry
:4S 002: 4S                 -15.612003835 Ry
:4PP002: 4P*                -11.950984268 Ry
:4P 002: 4P                 -10.938816334 Ry

        3.ATOM      Br                    7 CORE STATES
       CORE-FORCE in mRy/a.u. = |F|      Fx             Fy             Fz
:FCO003:   3.ATOM     82.721640569175    -71.423078241015     41.732645651020      0.000000000000

:1S 003: 1S                -977.915074637 Ry
:2S 003: 2S                -126.709442001 Ry
:2PP003: 2P*               -114.040125166 Ry
:2P 003: 2P                -110.548651352 Ry
:3S 003: 3S                 -16.877423933 Ry
:3PP003: 3P*                -12.472855454 Ry
:3P 003: 3P                 -11.970558101 Ry

        4.ATOM      Br                    7 CORE STATES
       CORE-FORCE in mRy/a.u. = |F|      Fx             Fy             Fz
:FCO004:   4.ATOM    113.419126283298     77.247237854116     63.519439274720     53.498068049244

:1S 004: 1S                -977.914084909 Ry
:2S 004: 2S                -126.708441238 Ry
:2PP004: 2P*               -114.039125853 Ry
:2P 004: 2P                -110.547651812 Ry
:3S 004: 3S                 -16.876408803 Ry
:3PP004: 3P*                -12.471839925 Ry
:3P 004: 3P                 -11.969542105 Ry
:CINT001 Core Integral Atom   1   67.995200
:CINT002 Core Integral Atom   2   35.999909
:CINT003 Core Integral Atom   3   17.999988
:CINT004 Core Integral Atom   4   17.999988

       DENSITY AT NUCLEUS
        JATOM        VALENCE       SEMI-CORE          CORE           TOTAL
:RTO001:   1     2059.556668        0.000000  9911370.682036  9913430.238704
:RTO002:   2      321.521560        0.000000   438173.471903   438494.993463
:RTO003:   3       72.170643        0.000000    45839.372456    45911.543099
:RTO004:   4       72.162803        0.000000    45839.373257    45911.536061
     
       CHARGES OF NEW CHARGE DENSITY
:NTO   : INTERSTITIAL CHARGE =    35.512236
:NPC   : PW Pseudocharge     =   102.660762
:NTO001: CHARGE SPHERE  1    =    79.516634
:NTO002: CHARGE SPHERE  2    =    52.323139
:NTO003: CHARGE SPHERE  3    =    33.759798
:NTO004: CHARGE SPHERE  4    =    33.758719

:NEC01: NUCLEAR AND ELECTRONIC CHARGE    968.00000   967.98027
     
       CHARGES OF OLD CHARGE DENSITY
:OTO   : INTERSTITIAL CHARGE =    35.531261
:OPC   : PW Pseudocharge     =   102.715995
:OTO001: CHARGE SPHERE  1    =    79.516613
:OTO002: CHARGE SPHERE  2    =    52.323105
:OTO003: CHARGE SPHERE  3    =    33.759874
:OTO004: CHARGE SPHERE  4    =    33.758796

:NEC02: NUCLEAR AND ELECTRONIC CHARGE    968.00000   968.00000
     
       CONVERGENCE TEST
:DTO001: DIFFERENCE IN SPHERE  1 =  0.0002323
:DTO002: DIFFERENCE IN SPHERE  2 =  0.0000885
:DTO003: DIFFERENCE IN SPHERE  3 =  0.0000981
:DTO004: DIFFERENCE IN SPHERE  4 =  0.0000981

:DIS  :  CHARGE DISTANCE       ( 0.0002323 for atom    1 spin 1)      0.0001230
 PW Mixed is         2248
 
******************************************************
* MULTISECANT MIXING VER9 RELEASE 10.4.0              *
* Standard Mode with controls                        *
* Fixed density scale                                *
* Regularization       1.000E-04                     *
* Trust Upper Limit    5.000E+00                     *
* Max Number of Memory Steps    8                    *
******************************************************
 
:PWTMP   3.9481E+03  2.5000E+03  5.2571E+03
:PLANE:  PW TOTAL      8.0815 DISTAN   7.79E-04  9.64E-03 %
:CHARG:  CLM/ATOM   1115.9443 DISTAN   1.77E-04  1.58E-05 %
 
Step History
        DMIX         DMIXT        Red     Pred      Trust     Lambda    MagRel    MagAbs     Beta
  2   2.5000E-02   2.5000E-02  3.68E-01  1.00E+00 -1.00E+01  1.00E+00  2.50E-02  8.99E-02  1.00E+00
  3   4.3009E-02   4.3009E-02  8.39E-01  1.00E+00 -1.00E+01  7.99E-02  4.30E-02  5.70E-02  1.00E+00
  4   1.0752E-01   1.0752E-01  8.31E-01  1.00E+00  3.20E-01  1.28E+00  1.08E-01  1.20E-01  9.96E-01
  5   2.4737E-01   1.5049E-01  7.09E-01  7.79E-01  5.99E-01  1.25E+00  2.28E-01  2.11E-01  1.00E+00
  6   3.5000E-01   2.8166E-01  4.64E-01  5.18E-01  1.34E+00  1.08E+00  4.77E-01  3.12E-01  1.00E+00
  7   3.5000E-01   3.5000E-01  7.41E-02  1.62E-01  3.81E+00  8.06E-01  9.78E-01  2.97E-01  1.00E+00
  8   2.7777E-01   2.7777E-01  4.93E-01  6.36E-01  1.50E+01  1.12E+00  4.93E-01  1.11E-02  1.00E+00
  9   3.5000E-01   3.5000E-01  3.12E-01  6.69E-01  1.88E+01  8.72E-01  6.53E-01  7.25E-03  1.00E+00
 10   3.5000E-01   3.5000E-01 -1.00E+00  4.81E-01  2.25E+01  1.00E+00  7.57E-01  2.62E-03  1.00E+00
:JACOBIANS    2.351E+00   1.967E+00
  
:NORMS:  1/Froebius, Min, Max, Used   0.8941E+00  0.6756E+00  0.1017E+01  0.9345E+00
:INFO :  Number of Memory Steps    8 Skipping    1
:INFO :  SLambda=    1.0481513809  Max    1.0481513809
:PREDicted Charge, CTotal, PW Trust    3.148E-04   8.394E-04   2.206E-03
:PREDicted DMix, Beta, BLim   6.8713E-01  1.2669E+00  6.1531E+00

Eigenvalues, unscaled except for SY+YY
   #     SY Real        SY Imag          SS             YY         SY+YY Real      SY+YY Imag
   1   3.829575E+00   0.000000E+00   4.070435E+00   4.661455E+00   8.655698E+00   0.000000E+00
   2   2.152025E+00   0.000000E+00   1.876330E+00   2.440550E+00   4.708661E+00   0.000000E+00
   3   2.869459E-01   0.000000E+00   2.660340E-01   4.637099E-01   7.378228E-01   0.000000E+00
   4   2.516120E-01   0.000000E+00   1.498584E-01   3.162017E-01   6.059896E-01   0.000000E+00
   5   6.277993E-02   0.000000E+00   3.057579E-02   1.133710E-01   1.869599E-01   0.000000E+00
   6   2.014063E-03   0.000000E+00   1.217463E-03   3.476817E-03   5.586311E-03   0.000000E+00
   7   7.226939E-04   0.000000E+00   3.373200E-04   1.221570E-03   1.852575E-05   0.000000E+00
   8   4.336153E-06   0.000000E+00   1.346377E-06   1.393013E-05   2.052049E-03   0.000000E+00
 
:INFO :  Singular value  8.667E+00 Weight  1.000E+00 Projection -6.095E-05
:INFO :  Singular value  4.705E+00 Weight  1.000E+00 Projection  2.155E-04
:INFO :  Singular value  7.389E-01 Weight  1.000E+00 Projection -6.182E-04
:INFO :  Singular value  6.055E-01 Weight  1.000E+00 Projection -4.414E-04
:INFO :  Singular value  1.868E-01 Weight  1.000E+00 Projection  3.970E-04
:INFO :  Singular value  5.589E-03 Weight  9.931E-01 Projection  1.211E-02
:INFO :  Singular value  2.051E-03 Weight  9.509E-01 Projection -1.520E-02
:INFO :  Singular value  1.852E-05 Weight  1.577E-03 Projection  5.065E-05
:RANK :  ACTIVE   6.95/8  =  86.82 % ; YY RANK   6.86/8  =  85.70 %
 
:BLIM :  VZERO Control Off
:TRUST:  Step 2.25E+01  Charge 9.68E-02 (e) CTO  3.43E-01 (e) PW  1.05E+00 (e)
:DIRM :  MEMORY  8/8  SCALE   1.000 RED  0.30 PRED  0.48 NEXT  0.30 
:TRAVE:  Charge 4.66E-03 (e) CTO  1.60E-02 (e) PW  6.48E-02 (e)
:DIRP :  |MSR1|= 7.825E-04 |PRATT|= 7.787E-04 ANGLE=   6.2 DEGREES
:DIRQ :  |MSR1|= 6.164E-04 |PRATT|= 7.064E-04 ANGLE=  16.2 DEGREES
:DIRT :  |MSR1|= 9.961E-04 |PRATT|= 1.051E-03 ANGLE=  12.1 DEGREES
:MIX  :   MSE1   REGULARIZATION:  4.66E-04 GREED: 0.35000  Newton 1.00  0.9475                
     
       CHARGES OF MIXED CHARGE DENSITY
:CTO   : INTERSTITIAL CHARGE =    35.531868
:CPC   : PW Pseudocharge     =   102.718046
:CTO001: CHARGE SPHERE  1    =    79.516688
:CTO002: CHARGE SPHERE  2    =    52.323149
:CTO003: CHARGE SPHERE  3    =    33.759784
:CTO004: CHARGE SPHERE  4    =    33.758706

:NEC03: NUCLEAR AND ELECTRONIC CHARGE    968.00000   968.00000

PW CHANGE     H    K    L      Current       Change    Residue
:PTO001:      0    0    0  2.62978873E-02  5.059E-07  4.784E-07
:PTO006:     -1    0   -1 -2.36707483E-03 -1.135E-07 -1.189E-07
:PTO007:      0    0   -2  2.41466771E-03 -7.631E-07 -9.549E-07
:PTO008:     -1   -1    0  4.58991866E-03 -1.313E-06 -1.691E-06
:PTO009:     -1   -1   -1 -1.04206515E-02 -9.667E-07 -1.025E-06
:PTO012:      0   -2    0  6.72648259E-03  1.251E-06  1.073E-06
:PTO013:     -1   -1   -2  2.09288336E-02  5.665E-06  5.018E-06
:PTO014:     -2    0    0  6.70602500E-03  1.458E-06  1.310E-06
:PTO015:      0   -2   -1  5.68210759E-03  1.214E-06  1.235E-06
:PTO018:     -1   -2    0 -1.03087568E-02  4.001E-07  3.818E-07
:PTO019:     -2   -1    0  1.13183297E-02 -4.473E-07 -4.442E-07
:PTO021:     -1   -2   -1  1.17725502E-02 -6.251E-07 -6.286E-07

:ENE  : ********** TOTAL ENERGY IN Ry =      -292312.84415500

       TOTAL FORCE IN mRy/a.u. = |F|     Fx             Fy             Fz     with/without FOR in case.in2
:FOR001:   1.ATOM          0.000          0.000          0.000          0.000 partial forces
:FOR002:   2.ATOM          0.225         -0.181          0.135          0.000 partial forces
:FOR003:   3.ATOM         25.936         23.598        -10.760          0.000 partial forces
:FOR004:   4.ATOM         35.800        -24.122        -20.053        -17.252 partial forces
       TOTAL FORCE WITH RESPECT TO GLOBAL CARTESIAN COORDINATES:
:FCA001:   1.ATOM                         0.000          0.000          0.000 partial forces
:FCA002:   2.ATOM                        -0.181          0.135          0.000 partial forces
:FCA003:   3.ATOM                        23.598        -10.760          0.000 partial forces
:FCA004:   4.ATOM                       -24.122        -20.053        -17.252 partial forces
       TOTAL FORCE WITH RESPECT TO THE GLOBAL COORDINATE SYSTEM:
:FGL001:   1.ATOM                 0.000000000     0.000000000     0.000000000 partial forces
:FGL002:   2.ATOM                -0.180728206     0.134625903     0.000000000 partial forces
:FGL003:   3.ATOM                23.598076960   -10.760343096     0.000000000 partial forces
:FGL004:   4.ATOM               -24.122039059   -20.053413262   -17.251524554 partial forces
