
:LABEL1: Calculations in /home/cmueller/wien/FZU/src/perovskite/4000k
:LABEL2: on cv036 at Thu Jun 20 11:30:41 PM CEST 2024
:LABEL3: using WIEN2k_19.1 (Release 25/6/2019) in /home/cmueller/WIENROOT
:LABEL4: using the command: run_lapw

:LABEL1: Calculations in /home/cmueller/wien/FZU/src/perovskite/4000k
:LABEL2: on cv036 at Thu Jun 20 11:41:16 PM CEST 2024
:LABEL3: using WIEN2k_19.1 (Release 25/6/2019) in /home/cmueller/WIENROOT
:LABEL4: using the command: run_lapw
 Flat Integration
 New Mode for Coulomb Integral
 Consistent 3/8+Simpson combinations
 Extension of core to zero
 LDM version in phi
 Fifth-order quadrature in outwin


            ---------
:ITE001:  1. ITERATION
            ---------

:NATO :    4 INDEPENDENT AND   20 TOTAL ATOMS IN UNITCELL
       SUBSTANCE: blebleble                                                   

       LATTICE                      = P   
:POT  : POTENTIAL OPTION EX_PBE EC_PBE VX_PBE VC_PBE
:LAT  : LATTICE CONSTANTS= 15.19415 15.66734 22.08372    1.571    1.571    1.571
:VOL  : UNIT CELL VOLUME =    5257.07306
       MODE OF CALCULATION IS       = RELA
       NON-SPINPOLARIZED CALCULATION
:IFFT  : FFT-parameters:  120  120  180 Factor: 2.00


   CONVERGENCE PARAMETER FOR PSEUDOCHARGE: NCON=  9
   MAXIMAL VALUE OF RMT(JATOM)*ABSK(NKK) : RK  =29.99804


:VKCOUL :  VK-COUL convergence: 0.423E-07
       ATOMNUMBER=  1 Pb         VCOUL-ZERO =  0.10897E+00
:EFG001:                        EFG         =     0.00590   *10**21  V / m**2
                               V20  TOT/SRF=     0.00113     0.00195
                               V22  TOT/SRF=    -0.00027    -0.00077
                               V22M TOT/SRF=    -0.00029    -0.00093
                               V21  TOT/SRF=     0.00242     0.00330
                               V21M TOT/SRF=    -0.00473    -0.00516

             -0.00092   -0.00029    0.00242       -0.00105    0.00000    0.00000
             -0.00029   -0.00038   -0.00473        0.00000    0.00590    0.00000
              0.00242   -0.00473    0.00130        0.00000    0.00000   -0.00485

         MAIN DIRECTIONS OF THE EFG   1.0000  0.3879 -0.5274
                                      0.5164 -0.7730  1.0000
                                      0.0112  1.0000  0.9776
:ANG001:  ANGLE WITH OLD X-AXIS =        33.2

:ETA001:                         ASYMM. ETA =     0.64411


       ATOMNUMBER=  2 Cs         VCOUL-ZERO = -0.49697E-01
:EFG002:                        EFG         =     0.00079   *10**21  V / m**2
                               V20  TOT/SRF=    -0.00038    -0.00033
                               V22  TOT/SRF=    -0.00031    -0.00059
                               V22M TOT/SRF=    -0.00049    -0.00143
                               V21  TOT/SRF=     0.00000     0.00000
                               V21M TOT/SRF=     0.00000     0.00000

             -0.00009   -0.00049    0.00000       -0.00036    0.00000    0.00000
             -0.00049    0.00053    0.00000        0.00000    0.00079    0.00000
              0.00000    0.00000   -0.00043        0.00000    0.00000   -0.00043

         MAIN DIRECTIONS OF THE EFG   1.0000 -0.5459  0.0000
                                      0.5459  1.0000  0.0000
                                      0.0000  0.0000  1.0000
:ANG002:  ANGLE WITH OLD X-AXIS =        28.6

:ETA002:                         ASYMM. ETA =     0.09356


       ATOMNUMBER=  3 Br         VCOUL-ZERO =  0.28031E+00
:EFG003:                        EFG         =    -0.02231   *10**21  V / m**2
                               V20  TOT/SRF=     0.01925     0.05961
                               V22  TOT/SRF=     0.00410     0.00562
                               V22M TOT/SRF=    -0.01042    -0.01150
                               V21  TOT/SRF=     0.00000     0.00000
                               V21M TOT/SRF=     0.00000     0.00000

             -0.00702   -0.01042    0.00000        0.00008    0.00000    0.00000
             -0.01042   -0.01521    0.00000        0.00000   -0.02231    0.00000
              0.00000    0.00000    0.02223        0.00000    0.00000    0.02223

         MAIN DIRECTIONS OF THE EFG   1.0000  0.6813  0.0000
                                     -0.6813  1.0000  0.0000
                                      0.0000  0.0000  1.0000
:ANG003:  ANGLE WITH OLD X-AXIS =        34.3

:ETA003:                         ASYMM. ETA =     0.99277


       ATOMNUMBER=  4 Br         VCOUL-ZERO =  0.28025E+00
:EFG004:                        EFG         =     0.02212   *10**21  V / m**2
                               V20  TOT/SRF=    -0.00625    -0.02554
                               V22  TOT/SRF=    -0.00319    -0.00440
                               V22M TOT/SRF=    -0.01622    -0.04902
                               V21  TOT/SRF=    -0.00456    -0.00425
                               V21M TOT/SRF=     0.00611     0.00781

              0.00042   -0.01622   -0.00456        0.02212    0.00000    0.00000
             -0.01622    0.00679    0.00611        0.00000   -0.01296    0.00000
             -0.00456    0.00611   -0.00722        0.00000    0.00000   -0.00916

         MAIN DIRECTIONS OF THE EFG  -0.8182  1.0000  0.2387
                                      1.0000  0.8580 -0.1399
                                      0.3353 -0.1186  1.0000
:ANG004:  ANGLE WITH OLD X-AXIS =       128.5

:ETA004:                         ASYMM. ETA =     0.17181


     HELLMANN-FEYNMAN-FORCE IN mRy/a.u. = |F|  Fx       Fy             Fz
:FHF001:   1.ATOM      0.000000000000      0.000000000000      0.000000000000      0.000000000000

     HELLMANN-FEYNMAN-FORCE IN mRy/a.u. = |F|  Fx       Fy             Fz
:FHF002:   2.ATOM     13.212661606233     13.207363767740      0.374124347533      0.000000000000

     HELLMANN-FEYNMAN-FORCE IN mRy/a.u. = |F|  Fx       Fy             Fz
:FHF003:   3.ATOM    220.113963888524    -93.045637347661   -199.480992751907      0.000000000000

     HELLMANN-FEYNMAN-FORCE IN mRy/a.u. = |F|  Fx       Fy             Fz
:FHF004:   4.ATOM    174.202709980683     55.580955909951    107.026757789216    125.708450876934

:FIT001: LUSE= 13 SIGMA OF V-XC FIT FOR ATOM  1  0.7571362E-03
:FIT001: LUSE= 13 SIGMA OF V-XC FIT FOR ATOM  1  0.7571362E-03
:FIT002: LUSE= 13 SIGMA OF V-XC FIT FOR ATOM  2  0.1645418E-04
:FIT002: LUSE= 13 SIGMA OF V-XC FIT FOR ATOM  2  0.1645418E-04
:FIT003: LUSE= 13 SIGMA OF V-XC FIT FOR ATOM  3  0.7450639E-03
:FIT003: LUSE= 13 SIGMA OF V-XC FIT FOR ATOM  3  0.7450639E-03
:FIT004: LUSE= 13 SIGMA OF V-XC FIT FOR ATOM  4  0.6626845E-03
:FIT004: LUSE= 13 SIGMA OF V-XC FIT FOR ATOM  4  0.6626845E-03
:DEN  : DENSITY INTEGRAL  =       -114061.79163689   (Ry)
       ELS_POTENTIAL_AT Z=0 and Z=0.5:  -0.57564  -0.57564
       ELS_POTENTIAL_AT Y=0 and Y=0.5:  -0.47943  -0.47943
:VZERO:v0,v0c,v0x  -1.32226  -0.57564  -0.74662 v5,v5c,v5x  -1.32226  -0.57564  -0.74662
:VZERY:v0,v0c,v0x  -1.13920  -0.47943  -0.65976 v5,v5c,v5x  -1.13920  -0.47943  -0.65976
:VZERX:v0,v0c,v0x  -1.13400  -0.48141  -0.65258 v5,v5c,v5x  -1.13400  -0.48141  -0.65258
:LMAX-WF:   10   Non-Spherical LMAX:   4

          ATOMIC SPHERE DEPENDENT PARAMETERS FOR ATOM  Pb        
:e__0001: OVERALL ENERGY PARAMETER IS    0.3000
          OVERALL BASIS SET ON ATOM IS LAPW
:E2_0001: E( 2)=    0.7000
             APW+lo
:E2_0001: E( 2)=   -0.9369   E(BOTTOM)=   -1.175   E(TOP)=   -0.699  2  3   123
             LOCAL ORBITAL
:E0_0001: E( 0)=    0.3000
             APW+lo
:E1_0001: E( 1)=    0.3000
             APW+lo

          ATOMIC SPHERE DEPENDENT PARAMETERS FOR ATOM  Cs        
:e__0002: OVERALL ENERGY PARAMETER IS    0.3000
          OVERALL BASIS SET ON ATOM IS LAPW
:E2_0002: E( 2)=    0.3000
             APW+lo
:E2_0002: E( 2)=   -4.8572   E(BOTTOM)=   -4.869   E(TOP)=   -4.846  1  2   120
             LOCAL ORBITAL
:E0_0002: E( 0)=    0.7000
             APW+lo
:E0_0002: E( 0)=   -1.3662   E(BOTTOM)=   -2.049   E(TOP)=   -0.683  4  5   169
             LOCAL ORBITAL
:E1_0002: E( 1)=    0.7000
             APW+lo
:E1_0002: E( 1)=   -0.1934   E(BOTTOM)=   -1.166   E(TOP)=    0.779  3  4   199
             LOCAL ORBITAL

          ATOMIC SPHERE DEPENDENT PARAMETERS FOR ATOM  Br        
:e__0003: OVERALL ENERGY PARAMETER IS    0.3000
          OVERALL BASIS SET ON ATOM IS LAPW
:E2_0003: E( 2)=    0.3000
             APW+lo
:E2_0003: E( 2)=   -4.3424   E(BOTTOM)=   -4.346   E(TOP)=   -4.339  1  1   115
             LOCAL ORBITAL
:E0_0003: E( 0)=    0.7000
             APW+lo
:E0_0003: E( 0)=   -0.9471   E(BOTTOM)=   -1.512   E(TOP)=   -0.382  3  4   158
             LOCAL ORBITAL
:E1_0003: E( 1)=    0.3000
             APW+lo

          ATOMIC SPHERE DEPENDENT PARAMETERS FOR ATOM  Br        
:e__0004: OVERALL ENERGY PARAMETER IS    0.3000
          OVERALL BASIS SET ON ATOM IS LAPW
:E2_0004: E( 2)=    0.3000
             APW+lo
:E2_0004: E( 2)=   -4.3426   E(BOTTOM)=   -4.346   E(TOP)=   -4.339  1  1   119
             LOCAL ORBITAL
:E0_0004: E( 0)=    0.7000
             APW+lo
:E0_0004: E( 0)=   -0.9473   E(BOTTOM)=   -1.512   E(TOP)=   -0.382  3  4   153
             LOCAL ORBITAL
:E1_0004: E( 1)=    0.3000
             APW+lo

       K=   0.02778   0.02941   0.04167            1
:RKM  : MATRIX SIZE  2238LOs: 308  RKM= 7.00  WEIGHT= 8.00  PGR:    
       EIGENVALUES ARE:
:EIG00001:      -4.8544092   -4.8543985   -4.8543968   -4.8543937   -4.8543895
:EIG00006:      -4.8543881   -4.8543835   -4.8543783   -4.8543743   -4.8543675
:EIG00011:      -4.8543612   -4.8543518   -4.8543437   -4.8543413   -4.8543241
:EIG00016:      -4.8543122   -4.8543087   -4.8543069   -4.8542928   -4.8542807
:EIG00021:      -4.3422811   -4.3422731   -4.3422704   -4.3422661   -4.3422648
:EIG00026:      -4.3422630   -4.3422596   -4.3422527   -4.3421704   -4.3421667
:EIG00031:      -4.3421657   -4.3421579   -4.3420070   -4.3420065   -4.3419997
:EIG00036:      -4.3419935   -4.3419899   -4.3419861   -4.3419825   -4.3419730
:EIG00041:      -4.3419542   -4.3419445   -4.3419368   -4.3419287   -4.3419257
:EIG00046:      -4.3419254   -4.3419244   -4.3419163   -4.3419140   -4.3419109
 
:EIG00051:      -4.3419044   -4.3419009   -4.3416373   -4.3416358   -4.3416306
:EIG00056:      -4.3416227   -4.3415008   -4.3414976   -4.3414906   -4.3414891
:EIG00061:      -4.3414808   -4.3414796   -4.3414767   -4.3414711   -4.3414574
:EIG00066:      -4.3414522   -4.3414436   -4.3414408   -4.3414391   -4.3414364
:EIG00071:      -4.3414301   -4.3414289   -4.3413175   -4.3413134   -4.3413111
:EIG00076:      -4.3413045   -4.3412466   -4.3412414   -4.3412397   -4.3412344
:EIG00081:      -1.3724579   -1.3722895   -1.3721031   -1.3719976   -0.9681614
:EIG00086:      -0.9679309   -0.9679207   -0.9676924   -0.9675654   -0.9664509
:EIG00091:      -0.9484131   -0.9482023   -0.9478345   -0.9477428   -0.9475159
:EIG00096:      -0.9471049   -0.9034483   -0.9033321   -0.9031192   -0.8964156
 
:EIG00101:      -0.8963753   -0.8962988   -0.8961969   -0.8961780   -0.8960726
:EIG00106:      -0.8957176   -0.8956762   -0.8955120   -0.8954063   -0.8953636
:EIG00111:      -0.8950846   -0.8930637   -0.8811460   -0.8699576   -0.8696558
:EIG00116:      -0.8691497   -0.4146725   -0.4122912   -0.4118666   -0.4103606
:EIG00121:      -0.4097367   -0.4093421   -0.4090404   -0.4077816   -0.4077032
:EIG00126:      -0.4076329   -0.4071248   -0.4062172   -0.4054038   -0.3659365
:EIG00131:      -0.3250005   -0.2617179   -0.1486960   -0.1483030   -0.1468389
:EIG00136:      -0.1406238   -0.1398711   -0.1303485   -0.0991724   -0.0807595
:EIG00141:      -0.0777656   -0.0765091   -0.0751660   -0.0680203   -0.0581827
:EIG00146:      -0.0535686   -0.0522661   -0.0489321   -0.0464288   -0.0442810
 
:EIG00151:      -0.0421298   -0.0406626   -0.0399678   -0.0385390   -0.0315660
:EIG00156:      -0.0269044   -0.0266863   -0.0258842   -0.0244016   -0.0232168
:EIG00161:      -0.0219729   -0.0201425   -0.0181538   -0.0180119   -0.0004907
:EIG00166:       0.0570619    0.1059787    0.1610095    0.3382752    0.3410470
:EIG00171:       0.3448383    0.3712580    0.3843552    0.4016782    0.4022103
:EIG00176:       0.4824970    0.4884537    0.4962529    0.5000207    0.5320204
:EIG00181:       0.5335313    0.5367001    0.5453454    0.5484151    0.5507016
:EIG00186:       0.5510026    0.5572743    0.5599261    0.5745893    0.5778585
:EIG00191:       0.5801229    0.5850733    0.6022396    0.6049352    0.6066563
:EIG00196:       0.6149269    0.6164895    0.6196575    0.6227772    0.6281927
 
:EIG00201:       0.6365878    0.6417019    0.6532565    0.6584965    0.6607118
:EIG00206:       0.6748171    0.6782853    0.6902902    0.6970579    0.7024102
:EIG00211:       0.7154940    0.7342244    0.7409431    0.7535726    0.7575510
:EIG00216:       0.7598383    0.7617589    0.7672109    0.7793306    0.7868839
:EIG00221:       0.7875775    0.7914882    0.7946215    0.8355254    0.8554492
:EIG00226:       0.8592114    0.8607327    0.8638053    0.8670550    0.8685326
:EIG00231:       0.8717395    0.8830924    0.8939891    0.8961205    0.9077579
:EIG00236:       0.9278284    0.9382756    0.9513480    0.9571842    0.9604206
:EIG00241:       0.9614793    0.9669183    0.9817500    0.9857393    0.9959050
:EIG00246:       0.9979077    1.0140697    1.0151800    1.0184710    1.0202654
 
:EIG00251:       1.0268024    1.0294484    1.0446243    1.0553450    1.0619344
:EIG00256:       1.0727519    1.0830338    1.0892334    1.0905173    1.0923351
:EIG00261:       1.0938815    1.0991536    1.1012864    1.1039305    1.1085551
:EIG00266:       1.1149545    1.1192726    1.1260745    1.1305446    1.1329836
:EIG00271:       1.1348068    1.1397172    1.1448658    1.1472490    1.1600694
:EIG00276:       1.1637904    1.1676850    1.1704383    1.1747961    1.1761294
:EIG00281:       1.1770118    1.1838504    1.1853231    1.1893612    1.1912289
:EIG00286:       1.1930953    1.1972587    1.2031670    1.2149575    1.2199169
:EIG00291:       1.2226037    1.2256553    1.2274258    1.2331034    1.2403407
:EIG00296:       1.2409318    1.2430802    1.2476526    1.2514008    1.2613403
 
:EIG00301:       1.2682192    1.2697428    1.2785080    1.2860913    1.2866597
:EIG00306:       1.2968568    1.3065280    1.3103131    1.3147146    1.3167262
:EIG00311:       1.3217026    1.3304979    1.3431116    1.3437385    1.3569198
:EIG00316:       1.3579171    1.3683257    1.3752376    1.3815339    1.3839387
:EIG00321:       1.3871134    1.3876223    1.4049239    1.4073375    1.4112848
:EIG00326:       1.4202707    1.4222909    1.4332657    1.4347633    1.4381194
:EIG00331:       1.4463086    1.4475773    1.4522173    1.4539862    1.4616974
:EIG00336:       1.4689810    1.4713128    1.4741494    1.4778355    1.4839085
:EIG00341:       1.4896136    1.4911382    1.4961556    1.5004373    1.5024416
:EIG00346:       1.5071947    1.5143422    1.5168465    1.5192649    1.5255556
 
:EIG00351:       1.5312795    1.5357326    1.5408194    1.5436196    1.5514329
:EIG00356:       1.5618642    1.5667691    1.5730802    1.5802406    1.5827542
:EIG00361:       1.5932870    1.5957409    1.6079663    1.6130558    1.6225011
:EIG00366:       1.6305238    1.6360060    1.6386543    1.6436734    1.6543033
:EIG00371:       1.6549838    1.6569981    1.6668472    1.6717001    1.6767506
:EIG00376:       1.6791188    1.6822361    1.6915375    1.6998809    1.7088953
:EIG00381:       1.7092433    1.7169952    1.7200417    1.7239584    1.7274479
:EIG00386:       1.7322693    1.7374715    1.7427189    1.7441117    1.7485328
:EIG00391:       1.7521570    1.7555570    1.7632785    1.7666039    1.7758186
:EIG00396:       1.7763116    1.7822958    1.7919414    1.7941231    1.7960511
 
:EIG00401:       1.8046816    1.8112763    1.8162149    1.8186557    1.8226570
:EIG00406:       1.8268649    1.8284507    1.8370198    1.8390358    1.8423607
:EIG00411:       1.8454850    1.8516507    1.8532575    1.8647977    1.8729677
:EIG00416:       1.8848039    1.8865505    1.8909057    1.8976773    1.8999377
:EIG00421:       1.9036752    1.9059139    1.9091988    1.9127981    1.9202754
:EIG00426:       1.9218050    1.9338044    1.9378768    1.9421123    1.9447073
:EIG00431:       1.9550920    1.9606973    1.9632522    1.9698163    1.9754700
:EIG00436:       1.9828515    1.9897841    1.9932617    1.9997143
       ********************************************************

:KPT   :      NUMBER OF K-POINTS:   486
       Insulator, EF-inconsistency corrected
:GAP (global)   :  0.177266 Ry =     2.412 eV (accurate value if proper k-mesh)
         Bandranges (emin - emax) and occupancy:
:BAN00158: 158   -0.036625   -0.025348  2.00000000
:BAN00159: 159   -0.033401   -0.024402  2.00000000
:BAN00160: 160   -0.033401   -0.023217  2.00000000
:BAN00161: 161   -0.029199   -0.021942  2.00000000
:BAN00162: 162   -0.028486   -0.019326  2.00000000
:BAN00163: 163   -0.023500   -0.013851  2.00000000
:BAN00164: 164   -0.023251   -0.013851  2.00000000
:BAN00165: 165   -0.000491    0.063865  2.00000000
:BAN00166: 166    0.013649    0.070260  2.00000000
:BAN00167: 167    0.041436    0.119120  2.00000000
:BAN00168: 168    0.047507    0.161010  2.00000000
:BAN00169: 169    0.338275    0.441633  0.00000000
:BAN00170: 170    0.341047    0.441633  0.00000000
:BAN00171: 171    0.344838    0.443889  0.00000000
:BAN00172: 172    0.365921    0.450192  0.00000000
:BAN00173: 173    0.380347    0.454362  0.00000000
        Energy to separate low and high energystates:   -0.46467


:NOE  : NUMBER OF ELECTRONS          =  336.000

:FER  : F E R M I - ENERGY(TETRAH.M.)=   0.1610095114
:GMA  : POTENTIAL AND CHARGE CUT-OFF  12.00 Ry**.5

:POS001: ATOM   -1 X,Y,Z = 0.50000 0.50000 0.50000  MULT= 4  ZZ= 82.000  Pb        

       LMMAX 28
       LM=   0 0  2 0  2 1 -2 1  2 2 -2 2  4 0  4 1 -4 1  4 2 -4 2  4 3 -4 3  4 4 -4 4  6 0  6 1
        -6 1  6 2 -6 2  6 3 -6 3  6 4 -6 4  6 5 -6 5  6 6 -6 6

:CHA001: TOTAL VALENCE CHARGE INSIDE SPHERE   1 =  11.3104    (RMT=  2.5000 )
:PCS001: PARTIAL CHARGES SPHERE =  1 S,P,D,F,PX,PY,PZ,D-Z2,D-X2Y2,D-XY,D-XZ,D-YZ 
:QTL001: 1.3301 0.2629 9.7026 0.0124 0.0868 0.0874 0.0887 1.9483 1.9366 1.9470 1.9358 1.9350
        Q-s-low E-s-low   Q-p-low E-p-low   Q-d-low E-d-low   Q-f-low E-f-low
:EPL001:  0.0177 -0.9545    0.0087 -0.9464    9.6271 -0.8979    0.0010 -0.9568
        Q-s-hi  E-s-hi    Q-p-hi  E-p-hi    Q-d-hi  E-d-hi    Q-f-hi  E-f-hi 
:EPH001:  1.3124 -0.2171    0.2542 -0.0907    0.0756 -0.0566    0.0114 -0.0583

                      QXX         QXY         QYY         QZZ       UP TO R
:VZZ001:             0.65404     0.65279     0.16065    -0.81469       2.500

:POS002: ATOM   -2 X,Y,Z = 0.48491 0.94655 0.25000  MULT= 4  ZZ= 55.000  Cs        

       LMMAX 28
       LM=   0 0  1 1 -1 1  2 0  2 2 -2 2  3 1 -3 1  3 3 -3 3  4 0  4 2 -4 2  4 4 -4 4  5 1 -5 1
         5 3 -5 3  5 5 -5 5  6 0  6 2 -6 2  6 4 -6 4  6 6 -6 6

:CHA002: TOTAL VALENCE CHARGE INSIDE SPHERE   2 =  16.2947    (RMT=  2.5000 )
:PCS002: PARTIAL CHARGES SPHERE =  2 S,P,D,F,PX,PY,PZ,D-Z2,D-X2Y2,D-XY,D-XZ,D-YZ 
:QTL002: 1.7960 4.487510.0093 0.0018 1.4951 1.4960 1.4964 2.0014 2.0022 2.0011 2.0019 2.0026
        Q-s-low E-s-low   Q-p-low E-p-low   Q-d-low E-d-low   Q-f-low E-f-low
:EPL002:  1.7865 -1.3718    0.0022 -0.9454    9.9946 -4.8543    0.0001 -1.0167
        Q-s-hi  E-s-hi    Q-p-hi  E-p-hi    Q-d-hi  E-d-hi    Q-f-hi  E-f-hi 
:EPH002:  0.0095 -0.0770    4.4853 -0.3968    0.0147 -0.0520    0.0017 -0.0450

                      QXX         QXY         QYY         QZZ       UP TO R
:VZZ002:             0.54741     1.59482    -0.11853    -0.42887       2.500

:POS003: ATOM   -3 X,Y,Z = 0.56000 0.50750 0.25000  MULT= 4  ZZ= 35.000  Br        

       LMMAX 28
       LM=   0 0  1 1 -1 1  2 0  2 2 -2 2  3 1 -3 1  3 3 -3 3  4 0  4 2 -4 2  4 4 -4 4  5 1 -5 1
         5 3 -5 3  5 5 -5 5  6 0  6 2 -6 2  6 4 -6 4  6 6 -6 6

:CHA003: TOTAL VALENCE CHARGE INSIDE SPHERE   3 =  15.9553    (RMT=  2.5000 )
:PCS003: PARTIAL CHARGES SPHERE =  3 S,P,D,F,PX,PY,PZ,D-Z2,D-X2Y2,D-XY,D-XZ,D-YZ 
:QTL003: 1.7970 4.141310.0141 0.0024 1.3989 1.4027 1.3397 2.0109 2.0004 2.0002 2.0017 2.0009
        Q-s-low E-s-low   Q-p-low E-p-low   Q-d-low E-d-low   Q-f-low E-f-low
:EPL003:  1.7662 -0.9479    0.0063 -0.9020   10.0001 -4.3411    0.0006 -0.9117
        Q-s-hi  E-s-hi    Q-p-hi  E-p-hi    Q-d-hi  E-d-hi    Q-f-hi  E-f-hi 
:EPH003:  0.0308 -0.2384    4.1350 -0.0589    0.0140 -0.1100    0.0018 -0.1584

                      QXX         QXY         QYY         QZZ       UP TO R
:VZZ003:            -5.13946    -0.36329    -6.35667    11.49613       2.500

:POS004: ATOM   -4 X,Y,Z = 0.19962 0.70227 0.46752  MULT= 8  ZZ= 35.000  Br        

       LMMAX 49

:CHA004: TOTAL VALENCE CHARGE INSIDE SPHERE   4 =  15.9560    (RMT=  2.5000 )
:PCS004: PARTIAL CHARGES SPHERE =  4 S,P,D,F,PX,PY,PZ,D-Z2,D-X2Y2,D-XY,D-XZ,D-YZ 
:QTL004: 1.7968 4.142710.0137 0.0024 1.3729 1.3699 1.3999 2.0027 2.0019 2.0073 2.0008 2.0009
        Q-s-low E-s-low   Q-p-low E-p-low   Q-d-low E-d-low   Q-f-low E-f-low
:EPL004:  1.7666 -0.9479    0.0061 -0.9008   10.0000 -4.3413    0.0006 -0.9143
        Q-s-hi  E-s-hi    Q-p-hi  E-p-hi    Q-d-hi  E-d-hi    Q-f-hi  E-f-hi 
:EPH004:  0.0301 -0.2387    4.1366 -0.0590    0.0136 -0.1123    0.0018 -0.1531

                      QXX         QXY         QYY         QZZ       UP TO R
:VZZ004:             2.16539    -8.20703     3.11560    -5.28099       2.500

:CHA  : TOTAL VALENCE CHARGE INSIDE UNIT CELL =     336.000000

:SUM  : SUM OF EIGENVALUES =        -800.985404479


        1.ATOM      Pb                   19 CORE STATES
:1S 001: 1S               -6465.856478861 Ry
:2S 001: 2S               -1154.903306790 Ry
:2PP001: 2P*              -1108.893817011 Ry
:2P 001: 2P                -947.935173972 Ry
:3S 001: 3S                -276.693360124 Ry
:3PP001: 3P*               -255.968010997 Ry
:3P 001: 3P                -220.054280836 Ry
:3DD001: 3D*               -186.062537820 Ry
:3D 001: 3D                -178.422247597 Ry
:4S 001: 4S                 -62.128808944 Ry
:4PP001: 4P*                -53.163996678 Ry
:4P 001: 4P                 -44.373404565 Ry
:4DD001: 4D*                -29.792605091 Ry
:4D 001: 4D                 -28.152442018 Ry
:5S 001: 5S                  -9.904885030 Ry
:5PP001: 5P*                 -6.849845520 Ry
:5P 001: 5P                  -5.208607376 Ry
:4FF001: 4F*                 -9.280070916 Ry
:4F 001: 4F                  -8.910355399 Ry

        2.ATOM      Cs                   12 CORE STATES
       CORE-FORCE in mRy/a.u. = |F|      Fx             Fy             Fz
:FCO002:   2.ATOM      8.842542940986     -8.835064566040     -0.363592872713      0.000000000000

:1S 002: 1S               -2628.589836052 Ry
:2S 002: 2S                -411.663315835 Ry
:2PP002: 2P*               -387.226059542 Ry
:2P 002: 2P                -361.334303543 Ry
:3S 002: 3S                 -85.113558932 Ry
:3PP002: 3P*                -74.910137637 Ry
:3P 002: 3P                 -69.948285401 Ry
:3DD002: 3D*                -52.028973622 Ry
:3D 002: 3D                 -50.975649671 Ry
:4S 002: 4S                 -15.579493186 Ry
:4PP002: 4P*                -11.918652724 Ry
:4P 002: 4P                 -10.906723180 Ry

        3.ATOM      Br                    7 CORE STATES
       CORE-FORCE in mRy/a.u. = |F|      Fx             Fy             Fz
:FCO003:   3.ATOM    113.798211866841     46.855090037281    103.704549377974      0.000000000000

:1S 003: 1S                -977.960077086 Ry
:2S 003: 2S                -126.757186875 Ry
:2PP003: 2P*               -114.087264181 Ry
:2P 003: 2P                -110.595877631 Ry
:3S 003: 3S                 -16.930995736 Ry
:3PP003: 3P*                -12.526450390 Ry
:3P 003: 3P                 -12.024239283 Ry

        4.ATOM      Br                    7 CORE STATES
       CORE-FORCE in mRy/a.u. = |F|      Fx             Fy             Fz
:FCO004:   4.ATOM     88.726814992281    -27.631481055139    -54.539348517191    -64.299365601025

:1S 004: 1S                -977.960247445 Ry
:2S 004: 2S                -126.757357083 Ry
:2PP004: 2P*               -114.087434426 Ry
:2P 004: 2P                -110.596047870 Ry
:3S 004: 3S                 -16.931164448 Ry
:3PP004: 3P*                -12.526618974 Ry
:3P 004: 3P                 -12.024407776 Ry
:CINT001 Core Integral Atom   1   67.995039
:CINT002 Core Integral Atom   2   35.999909
:CINT003 Core Integral Atom   3   17.999989
:CINT004 Core Integral Atom   4   17.999989

       DENSITY AT NUCLEUS
        JATOM        VALENCE       SEMI-CORE          CORE           TOTAL
:RTO001:   1     1927.878821        0.000000  9911349.920423  9913277.799244
:RTO002:   2      320.878681        0.000000   438170.878700   438491.757381
:RTO003:   3       73.645527        0.000000    45839.135817    45912.781344
:RTO004:   4       73.629450        0.000000    45839.135906    45912.765356
     
       CHARGES OF NEW CHARGE DENSITY
:NTO   : INTERSTITIAL CHARGE =    34.110563
:NPC   : PW Pseudocharge     =   103.143066
:NTO001: CHARGE SPHERE  1    =    79.305396
:NTO002: CHARGE SPHERE  2    =    52.294593
:NTO003: CHARGE SPHERE  3    =    33.955308
:NTO004: CHARGE SPHERE  4    =    33.955984

:NEC01: NUCLEAR AND ELECTRONIC CHARGE    968.00000   967.97963
     
       CHARGES OF OLD CHARGE DENSITY
:OTO   : INTERSTITIAL CHARGE =    36.640813
:OPC   : PW Pseudocharge     =   131.400717
:OTO001: CHARGE SPHERE  1    =    79.809567
:OTO002: CHARGE SPHERE  2    =    52.317982
:OTO003: CHARGE SPHERE  3    =    33.573161
:OTO004: CHARGE SPHERE  4    =    33.572536

:NEC02: NUCLEAR AND ELECTRONIC CHARGE    968.00000   968.02395
     
       CONVERGENCE TEST
:DTO001: DIFFERENCE IN SPHERE  1 =  0.2619582
:DTO002: DIFFERENCE IN SPHERE  2 =  0.0742550
:DTO003: DIFFERENCE IN SPHERE  3 =  0.1900922
:DTO004: DIFFERENCE IN SPHERE  4 =  0.1907625

:DIS  :  CHARGE DISTANCE       ( 0.2619582 for atom    1 spin 1)      0.1815661
 PW Mixed is         2247
 
******************************************************
* MULTISECANT MIXING VER9 RELEASE 10.4.0              *
* Standard Mode with controls                        *
* Fixed density scale                                *
* Regularization       1.000E-04                     *
* Trust Upper Limit    5.000E+00                     *
* Max Number of Memory Steps    8                    *
******************************************************
 
:PWTMP   3.9481E+03  2.5000E+03  5.2571E+03
:PLANE:  PW TOTAL     10.8628 DISTAN   3.49E+00  3.21E+01 %
:CHARG:  CLM/ATOM   1115.9684 DISTAN   2.17E-01  1.94E-02 %
 
Step History
        DMIX         DMIXT        Red     Pred      Trust     Lambda    MagRel    MagAbs     Beta
  1   3.5000E-02   3.5000E-02 -1.00E+00  1.00E+00 -1.00E+01  1.00E+00  3.50E-02  3.50E-02  1.00E+00
:INFO :  Note, Pratt in use
:TRUST:  Step 3.75E-02  Charge 7.50E-02 (e) CTO  4.43E-01 (e) PW  6.21E-01 (e)
:DIRM :  MEMORY  0/ 8 SCALE   1.000
Performing Pseudo Compensation
Final Pseudo Compensation Rescaling     1.00017E+00
:MIX  :   PRATT  REGULARIZATION:  1.00E-04 GREED: 0.02500                  
     
       CHARGES OF MIXED CHARGE DENSITY
:CTO   : INTERSTITIAL CHARGE =    36.554718
:CPC   : PW Pseudocharge     =   113.536444
:CTO001: CHARGE SPHERE  1    =    79.796963
:CTO002: CHARGE SPHERE  2    =    52.317397
:CTO003: CHARGE SPHERE  3    =    33.582715
:CTO004: CHARGE SPHERE  4    =    33.582123

:NEC03: NUCLEAR AND ELECTRONIC CHARGE    968.00000   968.00000

PW CHANGE     H    K    L      Current       Change    Residue
:PTO001:      0    0    0  2.85503283E-02 -3.394E-03 -5.820E-03
:PTO006:     -1    0   -1 -2.51639522E-03  2.685E-04  3.933E-04
:PTO007:      0    0   -2  3.54025408E-03 -1.918E-03 -3.357E-03
:PTO008:     -1   -1    0  6.73934772E-03 -3.963E-03 -6.792E-03
:PTO009:     -1   -1   -1 -1.09892608E-02  1.548E-03  2.191E-03
:PTO012:      0   -2    0  8.00605026E-03 -3.040E-03 -4.732E-03
:PTO013:     -1   -1   -2  2.58157276E-02 -1.152E-02 -1.846E-02
:PTO014:     -2    0    0  7.95690367E-03 -3.092E-03 -4.793E-03
:PTO015:      0   -2   -1  6.10840592E-03 -1.114E-03 -1.748E-03
:PTO018:     -1   -2    0 -1.09999878E-02  1.244E-03  1.562E-03
:PTO019:     -2   -1    0  1.21013974E-02 -1.400E-03 -1.765E-03
:PTO021:     -1   -2   -1  1.26269849E-02 -1.485E-03 -1.878E-03

:ENE  : ********** TOTAL ENERGY IN Ry =      -292313.14249984

       TOTAL FORCE IN mRy/a.u. = |F|     Fx             Fy             Fz     with/without FOR in case.in2
:FOR001:   1.ATOM          0.000          0.000          0.000          0.000 partial forces
:FOR002:   2.ATOM          4.372          4.372          0.011          0.000 partial forces
:FOR003:   3.ATOM        106.333        -46.191        -95.776          0.000 partial forces
:FOR004:   4.ATOM         85.482         27.949         52.487         61.409 partial forces
       TOTAL FORCE WITH RESPECT TO GLOBAL CARTESIAN COORDINATES:
:FCA001:   1.ATOM                         0.000          0.000          0.000 partial forces
:FCA002:   2.ATOM                         4.372          0.011          0.000 partial forces
:FCA003:   3.ATOM                       -46.191        -95.776          0.000 partial forces
:FCA004:   4.ATOM                        27.949         52.487         61.409 partial forces
       TOTAL FORCE WITH RESPECT TO THE GLOBAL COORDINATE SYSTEM:
:FGL001:   1.ATOM                 0.000000000     0.000000000     0.000000000 partial forces
:FGL002:   2.ATOM                 4.372299202     0.010531475     0.000000000 partial forces
:FGL003:   3.ATOM               -46.190547310   -95.776443374     0.000000000 partial forces
:FGL004:   4.ATOM                27.949474855    52.487409272    61.409085276 partial forces
 Flat Integration
 New Mode for Coulomb Integral
 Consistent 3/8+Simpson combinations
 Extension of core to zero
 LDM version in phi
 Fifth-order quadrature in outwin


            ---------
:ITE002:  2. ITERATION
            ---------

:NATO :    4 INDEPENDENT AND   20 TOTAL ATOMS IN UNITCELL
       SUBSTANCE: blebleble                                                   

       LATTICE                      = P   
:POT  : POTENTIAL OPTION EX_PBE EC_PBE VX_PBE VC_PBE
:LAT  : LATTICE CONSTANTS= 15.19415 15.66734 22.08372    1.571    1.571    1.571
:VOL  : UNIT CELL VOLUME =    5257.07306
       MODE OF CALCULATION IS       = RELA
       NON-SPINPOLARIZED CALCULATION
:IFFT  : FFT-parameters:  120  120  180 Factor: 2.00


   CONVERGENCE PARAMETER FOR PSEUDOCHARGE: NCON=  9
   MAXIMAL VALUE OF RMT(JATOM)*ABSK(NKK) : RK  =29.99804


:VKCOUL :  VK-COUL convergence: 0.235E-08
       ATOMNUMBER=  1 Pb         VCOUL-ZERO =  0.95796E-01
:EFG001:                        EFG         =     0.02831   *10**21  V / m**2
                               V20  TOT/SRF=    -0.01647     0.00190
                               V22  TOT/SRF=     0.00590    -0.00072
                               V22M TOT/SRF=     0.01603    -0.00085
                               V21  TOT/SRF=    -0.00655     0.00318
                               V21M TOT/SRF=    -0.00633    -0.00511

              0.01541    0.01603   -0.00655        0.02831    0.00000    0.00000
              0.01603    0.00361   -0.00633        0.00000   -0.00743    0.00000
             -0.00655   -0.00633   -0.01902        0.00000    0.00000   -0.02088

         MAIN DIRECTIONS OF THE EFG   1.0000 -0.7390  0.0933
                                      0.7090  1.0000  0.1975
                                     -0.2334 -0.1285  1.0000
:ANG001:  ANGLE WITH OLD X-AXIS =        36.7

:ETA001:                         ASYMM. ETA =     0.47540


       ATOMNUMBER=  2 Cs         VCOUL-ZERO = -0.57641E-01
:EFG002:                        EFG         =     0.04608   *10**21  V / m**2
                               V20  TOT/SRF=    -0.00975    -0.00042
                               V22  TOT/SRF=     0.00806    -0.00052
                               V22M TOT/SRF=     0.03964    -0.00110
                               V21  TOT/SRF=     0.00000     0.00000
                               V21M TOT/SRF=     0.00000     0.00000

              0.01369    0.03964    0.00000        0.04608    0.00000    0.00000
              0.03964   -0.00243    0.00000        0.00000   -0.03482    0.00000
              0.00000    0.00000   -0.01126        0.00000    0.00000   -0.01126

         MAIN DIRECTIONS OF THE EFG   1.0000 -0.8171  0.0000
                                      0.8171  1.0000  0.0000
                                      0.0000  0.0000  1.0000
:ANG002:  ANGLE WITH OLD X-AXIS =        39.3

:ETA002:                         ASYMM. ETA =     0.51139


       ATOMNUMBER=  3 Br         VCOUL-ZERO =  0.27407E+00
:EFG003:                        EFG         =     0.31479   *10**21  V / m**2
                               V20  TOT/SRF=     0.27262     0.06293
                               V22  TOT/SRF=     0.01944     0.00570
                               V22M TOT/SRF=    -0.01946    -0.01138
                               V21  TOT/SRF=     0.00000     0.00000
                               V21M TOT/SRF=     0.00000     0.00000

             -0.13795   -0.01946    0.00000       -0.12989    0.00000    0.00000
             -0.01946   -0.17684    0.00000        0.00000   -0.18490    0.00000
              0.00000    0.00000    0.31479        0.00000    0.00000    0.31479

         MAIN DIRECTIONS OF THE EFG   1.0000  0.4146  0.0000
                                     -0.4146  1.0000  0.0000
                                      0.0000  0.0000  1.0000
:ANG003:  ANGLE WITH OLD X-AXIS =        22.5

:ETA003:                         ASYMM. ETA =     0.17478


       ATOMNUMBER=  4 Br         VCOUL-ZERO =  0.27410E+00
:EFG004:                        EFG         =     0.29764   *10**21  V / m**2
                               V20  TOT/SRF=    -0.12276    -0.02716
                               V22  TOT/SRF=    -0.01519    -0.00448
                               V22M TOT/SRF=    -0.22509    -0.05178
                               V21  TOT/SRF=    -0.02584    -0.00411
                               V21M TOT/SRF=     0.00676     0.00786

              0.05568   -0.22509   -0.02584        0.29764    0.00000    0.00000
             -0.22509    0.08606    0.00676        0.00000   -0.16424    0.00000
             -0.02584    0.00676   -0.14175        0.00000    0.00000   -0.13340

         MAIN DIRECTIONS OF THE EFG  -0.9378  1.0000 -0.4525
                                      1.0000  0.8754 -0.4949
                                      0.0705  0.8856  1.0000
:ANG004:  ANGLE WITH OLD X-AXIS =       130.5

:ETA004:                         ASYMM. ETA =     0.10359


     HELLMANN-FEYNMAN-FORCE IN mRy/a.u. = |F|  Fx       Fy             Fz
:FHF001:   1.ATOM      0.000000000000      0.000000000000      0.000000000000      0.000000000000

     HELLMANN-FEYNMAN-FORCE IN mRy/a.u. = |F|  Fx       Fy             Fz
:FHF002:   2.ATOM     12.774898446644     12.683844295262      1.522538740264      0.000000000000

     HELLMANN-FEYNMAN-FORCE IN mRy/a.u. = |F|  Fx       Fy             Fz
:FHF003:   3.ATOM    205.864914008205    -81.117761020432   -189.209597184280      0.000000000000

     HELLMANN-FEYNMAN-FORCE IN mRy/a.u. = |F|  Fx       Fy             Fz
:FHF004:   4.ATOM    153.702245728950     45.221830998150     94.386793436122    112.563313597922

:FIT001: LUSE= 13 SIGMA OF V-XC FIT FOR ATOM  1  0.7699681E-03
:FIT001: LUSE= 13 SIGMA OF V-XC FIT FOR ATOM  1  0.7699681E-03
:FIT002: LUSE= 13 SIGMA OF V-XC FIT FOR ATOM  2  0.1706833E-04
:FIT002: LUSE= 13 SIGMA OF V-XC FIT FOR ATOM  2  0.1706833E-04
:FIT003: LUSE= 13 SIGMA OF V-XC FIT FOR ATOM  3  0.7195883E-03
:FIT003: LUSE= 13 SIGMA OF V-XC FIT FOR ATOM  3  0.7195883E-03
:FIT004: LUSE= 13 SIGMA OF V-XC FIT FOR ATOM  4  0.6397587E-03
:FIT004: LUSE= 13 SIGMA OF V-XC FIT FOR ATOM  4  0.6397587E-03
:DEN  : DENSITY INTEGRAL  =       -114052.97340284   (Ry)
       ELS_POTENTIAL_AT Z=0 and Z=0.5:  -0.54399  -0.54399
       ELS_POTENTIAL_AT Y=0 and Y=0.5:  -0.45460  -0.45460
:VZERO:v0,v0c,v0x  -1.26511  -0.54399  -0.72112 v5,v5c,v5x  -1.26511  -0.54399  -0.72112
:VZERY:v0,v0c,v0x  -1.09370  -0.45460  -0.63911 v5,v5c,v5x  -1.09370  -0.45460  -0.63911
:VZERX:v0,v0c,v0x  -1.08666  -0.45418  -0.63248 v5,v5c,v5x  -1.08666  -0.45418  -0.63248
:LMAX-WF:   10   Non-Spherical LMAX:   4

          ATOMIC SPHERE DEPENDENT PARAMETERS FOR ATOM  Pb        
:e__0001: OVERALL ENERGY PARAMETER IS    0.1000
          OVERALL BASIS SET ON ATOM IS LAPW
:E2_0001: E( 2)=    0.5000
             APW+lo
:E2_0001: E( 2)=   -0.9530   E(BOTTOM)=   -1.190   E(TOP)=   -0.716  2  3   124
             LOCAL ORBITAL
:E0_0001: E( 0)=    0.1000
             APW+lo
:E1_0001: E( 1)=    0.1000
             APW+lo

          ATOMIC SPHERE DEPENDENT PARAMETERS FOR ATOM  Cs        
:e__0002: OVERALL ENERGY PARAMETER IS    0.1000
          OVERALL BASIS SET ON ATOM IS LAPW
:E2_0002: E( 2)=    0.1000
             APW+lo
:E2_0002: E( 2)=   -4.8658   E(BOTTOM)=   -4.877   E(TOP)=   -4.854  1  2   116
             LOCAL ORBITAL
:E0_0002: E( 0)=    0.5000
             APW+lo
:E0_0002: E( 0)=   -1.3744   E(BOTTOM)=   -2.057   E(TOP)=   -0.692  4  5   168
             LOCAL ORBITAL
:E1_0002: E( 1)=    0.5000
             APW+lo
:E1_0002: E( 1)=   -0.2016   E(BOTTOM)=   -1.174   E(TOP)=    0.771  3  4   195
             LOCAL ORBITAL

          ATOMIC SPHERE DEPENDENT PARAMETERS FOR ATOM  Br        
:e__0003: OVERALL ENERGY PARAMETER IS    0.1000
          OVERALL BASIS SET ON ATOM IS LAPW
:E2_0003: E( 2)=    0.1000
             APW+lo
:E2_0003: E( 2)=   -4.3446   E(BOTTOM)=   -4.348   E(TOP)=   -4.341  1  1   121
             LOCAL ORBITAL
:E0_0003: E( 0)=    0.5000
             APW+lo
:E0_0003: E( 0)=   -0.9512   E(BOTTOM)=   -1.517   E(TOP)=   -0.386  3  4   163
             LOCAL ORBITAL
:E1_0003: E( 1)=    0.1000
             APW+lo

          ATOMIC SPHERE DEPENDENT PARAMETERS FOR ATOM  Br        
:e__0004: OVERALL ENERGY PARAMETER IS    0.1000
          OVERALL BASIS SET ON ATOM IS LAPW
:E2_0004: E( 2)=    0.1000
             APW+lo
:E2_0004: E( 2)=   -4.3446   E(BOTTOM)=   -4.348   E(TOP)=   -4.341  1  1   125
             LOCAL ORBITAL
:E0_0004: E( 0)=    0.5000
             APW+lo
:E0_0004: E( 0)=   -0.9513   E(BOTTOM)=   -1.517   E(TOP)=   -0.386  3  4   154
             LOCAL ORBITAL
:E1_0004: E( 1)=    0.1000
             APW+lo

       K=   0.02778   0.02941   0.04167            1
:RKM  : MATRIX SIZE  2238LOs: 308  RKM= 7.00  WEIGHT= 8.00  PGR:    
       EIGENVALUES ARE:
:EIG00001:      -4.8629799   -4.8629632   -4.8629570   -4.8629552   -4.8629549
:EIG00006:      -4.8629514   -4.8629504   -4.8629445   -4.8629414   -4.8629382
:EIG00011:      -4.8629307   -4.8629269   -4.8629177   -4.8629123   -4.8629002
:EIG00016:      -4.8628886   -4.8628832   -4.8628730   -4.8628586   -4.8628508
:EIG00021:      -4.3444356   -4.3444272   -4.3444260   -4.3444242   -4.3444238
:EIG00026:      -4.3444210   -4.3444162   -4.3444157   -4.3444134   -4.3444099
:EIG00031:      -4.3444080   -4.3444034   -4.3441506   -4.3441357   -4.3441334
:EIG00036:      -4.3441306   -4.3441091   -4.3441053   -4.3440992   -4.3440949
:EIG00041:      -4.3440914   -4.3440877   -4.3440842   -4.3440739   -4.3440501
:EIG00046:      -4.3440459   -4.3440342   -4.3440242   -4.3440181   -4.3440156
 
:EIG00051:      -4.3440104   -4.3440059   -4.3438532   -4.3438508   -4.3438468
:EIG00056:      -4.3438379   -4.3434766   -4.3434747   -4.3434666   -4.3434647
:EIG00061:      -4.3434564   -4.3434553   -4.3434523   -4.3434474   -4.3434343
:EIG00066:      -4.3434269   -4.3434187   -4.3434160   -4.3434145   -4.3434122
:EIG00071:      -4.3434061   -4.3434035   -4.3433886   -4.3433844   -4.3433821
:EIG00076:      -4.3433755   -4.3433245   -4.3433196   -4.3433178   -4.3433124
:EIG00081:      -1.3805922   -1.3804267   -1.3802419   -1.3801373   -0.9761671
:EIG00086:      -0.9758859   -0.9758385   -0.9748368   -0.9737150   -0.9710130
:EIG00091:      -0.9526251   -0.9525065   -0.9521700   -0.9519522   -0.9517095
:EIG00096:      -0.9512842   -0.9195595   -0.9194246   -0.9191825   -0.9127013
 
:EIG00101:      -0.9126589   -0.9125839   -0.9124741   -0.9124659   -0.9123583
:EIG00106:      -0.9120012   -0.9119634   -0.9118114   -0.9117017   -0.9116581
:EIG00111:      -0.9113748   -0.9076074   -0.8944395   -0.8822654   -0.8819922
:EIG00116:      -0.8814993   -0.4225463   -0.4210040   -0.4201568   -0.4195575
:EIG00121:      -0.4180195   -0.4175729   -0.4173042   -0.4157710   -0.4157066
:EIG00126:      -0.4155051   -0.4151268   -0.4142614   -0.4132920   -0.3776940
:EIG00131:      -0.3371212   -0.2748531   -0.1553770   -0.1550541   -0.1535495
:EIG00136:      -0.1472842   -0.1465286   -0.1372546   -0.1041605   -0.0858240
:EIG00141:      -0.0827610   -0.0815528   -0.0802319   -0.0730440   -0.0632121
:EIG00146:      -0.0582506   -0.0569975   -0.0536262   -0.0512731   -0.0490925
 
:EIG00151:      -0.0467819   -0.0452940   -0.0447498   -0.0433523   -0.0363564
:EIG00156:      -0.0323199   -0.0321186   -0.0315160   -0.0291589   -0.0279652
:EIG00161:      -0.0266847   -0.0246188   -0.0227295   -0.0224588   -0.0054078
:EIG00166:       0.0496749    0.0980989    0.1526322    0.3278364    0.3305149
:EIG00171:       0.3345168    0.3606915    0.3737129    0.3912814    0.3952185
:EIG00176:       0.4757921    0.4818913    0.4891174    0.4931424    0.5246521
:EIG00181:       0.5248291    0.5293998    0.5370668    0.5410743    0.5423929
:EIG00186:       0.5435030    0.5500808    0.5531581    0.5663147    0.5701581
:EIG00191:       0.5733287    0.5783583    0.5941273    0.5957837    0.5988570
:EIG00196:       0.6057234    0.6087957    0.6122898    0.6137338    0.6213325
 
:EIG00201:       0.6292007    0.6334521    0.6458264    0.6510768    0.6534288
:EIG00206:       0.6678151    0.6710273    0.6834762    0.6895701    0.6956784
:EIG00211:       0.7086119    0.7271585    0.7339741    0.7470308    0.7509173
:EIG00216:       0.7526823    0.7550877    0.7604370    0.7727509    0.7803404
:EIG00221:       0.7809251    0.7851099    0.7877077    0.8285429    0.8487610
:EIG00226:       0.8525877    0.8538481    0.8571153    0.8607190    0.8611449
:EIG00231:       0.8648816    0.8764136    0.8871857    0.8887589    0.9013546
:EIG00236:       0.9213972    0.9315175    0.9445734    0.9506243    0.9538520
:EIG00241:       0.9550433    0.9603099    0.9758299    0.9785297    0.9891060
:EIG00246:       0.9908813    1.0068572    1.0092829    1.0119563    1.0143589
 
:EIG00251:       1.0199752    1.0227860    1.0384971    1.0490428    1.0558327
:EIG00256:       1.0663537    1.0779034    1.0836092    1.0847498    1.0876062
:EIG00261:       1.0885564    1.0943701    1.0968843    1.0989596    1.1041435
:EIG00266:       1.1103649    1.1138588    1.1208850    1.1254346    1.1277411
:EIG00271:       1.1296657    1.1349788    1.1403629    1.1428316    1.1544465
:EIG00276:       1.1588508    1.1628374    1.1653947    1.1699854    1.1707206
:EIG00281:       1.1724187    1.1785301    1.1808119    1.1853458    1.1854811
:EIG00286:       1.1880406    1.1924682    1.1991095    1.2125631    1.2168566
:EIG00291:       1.2187910    1.2219050    1.2236672    1.2294600    1.2357650
:EIG00296:       1.2377033    1.2405369    1.2446440    1.2495603    1.2556152
 
:EIG00301:       1.2641100    1.2658258    1.2749384    1.2817985    1.2821883
:EIG00306:       1.2943164    1.3027238    1.3065846    1.3118492    1.3129368
:EIG00311:       1.3166166    1.3340599    1.3384348    1.3432745    1.3524406
:EIG00316:       1.3582375    1.3653932    1.3742512    1.3784135    1.3830961
:EIG00321:       1.3848227    1.3899088    1.4036158    1.4071398    1.4125188
:EIG00326:       1.4250518    1.4285373    1.4326437    1.4356085    1.4375142
:EIG00331:       1.4449391    1.4466373    1.4498069    1.4528470    1.4619778
:EIG00336:       1.4658778    1.4708260    1.4737695    1.4795453    1.4834910
:EIG00341:       1.4907706    1.4940187    1.4982077    1.5020127    1.5035871
:EIG00346:       1.5106883    1.5153471    1.5176824    1.5191232    1.5248671
 
:EIG00351:       1.5341631    1.5371739    1.5429539    1.5444275    1.5483311
:EIG00356:       1.5616246    1.5629228    1.5712219    1.5783959    1.5801405
:EIG00361:       1.5884087    1.5945842    1.6073607    1.6112284    1.6258413
:EIG00366:       1.6281805    1.6354546    1.6376353    1.6463403    1.6524437
:EIG00371:       1.6529851    1.6569109    1.6639260    1.6706272    1.6761646
:EIG00376:       1.6773314    1.6834151    1.6862043    1.6954839    1.7061924
:EIG00381:       1.7084981    1.7129705    1.7189923    1.7229982    1.7244677
:EIG00386:       1.7303308    1.7345899    1.7382289    1.7408802    1.7445565
:EIG00391:       1.7506768    1.7533261    1.7656233    1.7665766    1.7737214
:EIG00396:       1.7785447    1.7830477    1.7901255    1.7912153    1.7966397
 
       ********************************************************

:KPT   :      NUMBER OF K-POINTS:   486
       Insulator, EF-inconsistency corrected
:GAP (global)   :  0.175204 Ry =     2.384 eV (accurate value if proper k-mesh)
         Bandranges (emin - emax) and occupancy:
:BAN00158: 158   -0.041309   -0.030036  2.00000000
:BAN00159: 159   -0.038196   -0.029159  2.00000000
:BAN00160: 160   -0.038196   -0.027965  2.00000000
:BAN00161: 161   -0.034335   -0.026661  2.00000000
:BAN00162: 162   -0.033588   -0.023904  2.00000000
:BAN00163: 163   -0.028205   -0.018383  2.00000000
:BAN00164: 164   -0.028020   -0.018383  2.00000000
:BAN00165: 165   -0.005408    0.056225  2.00000000
:BAN00166: 166    0.007359    0.062548  2.00000000
:BAN00167: 167    0.033465    0.110933  2.00000000
:BAN00168: 168    0.039616    0.152632  2.00000000
:BAN00169: 169    0.327836    0.432751  0.00000000
:BAN00170: 170    0.330515    0.432751  0.00000000
:BAN00171: 171    0.334517    0.435089  0.00000000
:BAN00172: 172    0.355492    0.441066  0.00000000
:BAN00173: 173    0.369722    0.444694  0.00000000
        Energy to separate low and high energystates:   -0.47255


:NOE  : NUMBER OF ELECTRONS          =  336.000

:FER  : F E R M I - ENERGY(TETRAH.M.)=   0.1526322125
:GMA  : POTENTIAL AND CHARGE CUT-OFF  12.00 Ry**.5

:POS001: ATOM   -1 X,Y,Z = 0.50000 0.50000 0.50000  MULT= 4  ZZ= 82.000  Pb        

       LMMAX 28
       LM=   0 0  2 0  2 1 -2 1  2 2 -2 2  4 0  4 1 -4 1  4 2 -4 2  4 3 -4 3  4 4 -4 4  6 0  6 1
        -6 1  6 2 -6 2  6 3 -6 3  6 4 -6 4  6 5 -6 5  6 6 -6 6

:CHA001: TOTAL VALENCE CHARGE INSIDE SPHERE   1 =  11.3206    (RMT=  2.5000 )
:PCS001: PARTIAL CHARGES SPHERE =  1 S,P,D,F,PX,PY,PZ,D-Z2,D-X2Y2,D-XY,D-XZ,D-YZ 
:QTL001: 1.3321 0.2694 9.7043 0.0125 0.0890 0.0896 0.0908 1.9487 1.9369 1.9473 1.9361 1.9353
        Q-s-low E-s-low   Q-p-low E-p-low   Q-d-low E-d-low   Q-f-low E-f-low
:EPL001:  0.0183 -0.9591    0.0089 -0.9507    9.6292 -0.9141    0.0010 -0.9607
        Q-s-hi  E-s-hi    Q-p-hi  E-p-hi    Q-d-hi  E-d-hi    Q-f-hi  E-f-hi 
:EPH001:  1.3137 -0.2311    0.2606 -0.0974    0.0750 -0.0621    0.0115 -0.0638

                      QXX         QXY         QYY         QZZ       UP TO R
:VZZ001:             0.65323     0.66619     0.14473    -0.79796       2.500

:POS002: ATOM   -2 X,Y,Z = 0.48491 0.94655 0.25000  MULT= 4  ZZ= 55.000  Cs        

       LMMAX 28
       LM=   0 0  1 1 -1 1  2 0  2 2 -2 2  3 1 -3 1  3 3 -3 3  4 0  4 2 -4 2  4 4 -4 4  5 1 -5 1
         5 3 -5 3  5 5 -5 5  6 0  6 2 -6 2  6 4 -6 4  6 6 -6 6

:CHA002: TOTAL VALENCE CHARGE INSIDE SPHERE   2 =  16.2966    (RMT=  2.5000 )
:PCS002: PARTIAL CHARGES SPHERE =  2 S,P,D,F,PX,PY,PZ,D-Z2,D-X2Y2,D-XY,D-XZ,D-YZ 
:QTL002: 1.7962 4.489010.0095 0.0018 1.4956 1.4965 1.4969 2.0014 2.0023 2.0011 2.0020 2.0027
        Q-s-low E-s-low   Q-p-low E-p-low   Q-d-low E-d-low   Q-f-low E-f-low
:EPL002:  1.7866 -1.3800    0.0022 -0.9500    9.9946 -4.8629    0.0001 -1.0263
        Q-s-hi  E-s-hi    Q-p-hi  E-p-hi    Q-d-hi  E-d-hi    Q-f-hi  E-f-hi 
:EPH002:  0.0095 -0.0819    4.4868 -0.4047    0.0149 -0.0568    0.0017 -0.0498

                      QXX         QXY         QYY         QZZ       UP TO R
:VZZ002:             0.55752     1.61977    -0.11608    -0.44144       2.500

:POS003: ATOM   -3 X,Y,Z = 0.56000 0.50750 0.25000  MULT= 4  ZZ= 35.000  Br        

       LMMAX 28
       LM=   0 0  1 1 -1 1  2 0  2 2 -2 2  3 1 -3 1  3 3 -3 3  4 0  4 2 -4 2  4 4 -4 4  5 1 -5 1
         5 3 -5 3  5 5 -5 5  6 0  6 2 -6 2  6 4 -6 4  6 6 -6 6

:CHA003: TOTAL VALENCE CHARGE INSIDE SPHERE   3 =  15.9441    (RMT=  2.5000 )
:PCS003: PARTIAL CHARGES SPHERE =  3 S,P,D,F,PX,PY,PZ,D-Z2,D-X2Y2,D-XY,D-XZ,D-YZ 
:QTL003: 1.7964 4.130610.0140 0.0024 1.3961 1.4001 1.3343 2.0109 2.0004 2.0002 2.0017 2.0010
        Q-s-low E-s-low   Q-p-low E-p-low   Q-d-low E-d-low   Q-f-low E-f-low
:EPL003:  1.7651 -0.9522    0.0061 -0.9174   10.0001 -4.3433    0.0006 -0.9275
        Q-s-hi  E-s-hi    Q-p-hi  E-p-hi    Q-d-hi  E-d-hi    Q-f-hi  E-f-hi 
:EPH003:  0.0314 -0.2503    4.1245 -0.0641    0.0140 -0.1199    0.0018 -0.1691

                      QXX         QXY         QYY         QZZ       UP TO R
:VZZ003:            -5.38754    -0.35092    -6.62686    12.01440       2.500

:POS004: ATOM   -4 X,Y,Z = 0.19962 0.70227 0.46752  MULT= 8  ZZ= 35.000  Br        

       LMMAX 49

:CHA004: TOTAL VALENCE CHARGE INSIDE SPHERE   4 =  15.9447    (RMT=  2.5000 )
:PCS004: PARTIAL CHARGES SPHERE =  4 S,P,D,F,PX,PY,PZ,D-Z2,D-X2Y2,D-XY,D-XZ,D-YZ 
:QTL004: 1.7962 4.132010.0136 0.0024 1.3690 1.3658 1.3972 2.0027 2.0019 2.0073 2.0008 2.0009
        Q-s-low E-s-low   Q-p-low E-p-low   Q-d-low E-d-low   Q-f-low E-f-low
:EPL004:  1.7656 -0.9521    0.0059 -0.9164   10.0000 -4.3433    0.0006 -0.9302
        Q-s-hi  E-s-hi    Q-p-hi  E-p-hi    Q-d-hi  E-d-hi    Q-f-hi  E-f-hi 
:EPH004:  0.0307 -0.2507    4.1261 -0.0641    0.0136 -0.1223    0.0018 -0.1637

                      QXX         QXY         QYY         QZZ       UP TO R
:VZZ004:             2.28099    -8.57895     3.25801    -5.53900       2.500

:CHA  : TOTAL VALENCE CHARGE INSIDE UNIT CELL =     336.000000

:SUM  : SUM OF EIGENVALUES =        -803.078045204


        1.ATOM      Pb                   19 CORE STATES
:1S 001: 1S               -6465.876381951 Ry
:2S 001: 2S               -1154.922729735 Ry
:2PP001: 2P*              -1108.913342240 Ry
:2P 001: 2P                -947.954623263 Ry
:3S 001: 3S                -276.712200182 Ry
:3PP001: 3P*               -255.986893945 Ry
:3P 001: 3P                -220.073098513 Ry
:3DD001: 3D*               -186.081442719 Ry
:3D 001: 3D                -178.441130210 Ry
:4S 001: 4S                 -62.147036602 Ry
:4PP001: 4P*                -53.182224002 Ry
:4P 001: 4P                 -44.391550866 Ry
:4DD001: 4D*                -29.810739933 Ry
:4D 001: 4D                 -28.170550445 Ry
:5S 001: 5S                  -9.922079962 Ry
:5PP001: 5P*                 -6.866921696 Ry
:5P 001: 5P                  -5.225491462 Ry
:4FF001: 4F*                 -9.298131788 Ry
:4F 001: 4F                  -8.928401583 Ry

        2.ATOM      Cs                   12 CORE STATES
       CORE-FORCE in mRy/a.u. = |F|      Fx             Fy             Fz
:FCO002:   2.ATOM      8.572986173547     -8.502153864225     -1.099759792348      0.000000000000

:1S 002: 1S               -2628.599774736 Ry
:2S 002: 2S                -411.672871161 Ry
:2PP002: 2P*               -387.235689638 Ry
:2P 002: 2P                -361.343908762 Ry
:3S 002: 3S                 -85.122612109 Ry
:3PP002: 3P*                -74.919212849 Ry
:3P 002: 3P                 -69.957339697 Ry
:3DD002: 3D*                -52.038080160 Ry
:3D 002: 3D                 -50.984748478 Ry
:4S 002: 4S                 -15.588140288 Ry
:4PP002: 4P*                -11.927285914 Ry
:4P 002: 4P                 -10.915339290 Ry

        3.ATOM      Br                    7 CORE STATES
       CORE-FORCE in mRy/a.u. = |F|      Fx             Fy             Fz
:FCO003:   3.ATOM    106.336863400857     40.466958212464     98.335923298473      0.000000000000

:1S 003: 1S                -977.961571999 Ry
:2S 003: 2S                -126.758938522 Ry
:2PP003: 2P*               -114.088981752 Ry
:2P 003: 2P                -110.597600379 Ry
:3S 003: 3S                 -16.933098809 Ry
:3PP003: 3P*                -12.528560314 Ry
:3P 003: 3P                 -12.026360865 Ry

        4.ATOM      Br                    7 CORE STATES
       CORE-FORCE in mRy/a.u. = |F|      Fx             Fy             Fz
:FCO004:   4.ATOM     77.823622655210    -22.090531566038    -47.791507455068    -57.310526724874

:1S 004: 1S                -977.961631572 Ry
:2S 004: 2S                -126.758999555 Ry
:2PP004: 2P*               -114.089042567 Ry
:2P 004: 2P                -110.597661226 Ry
:3S 004: 3S                 -16.933160604 Ry
:3PP004: 3P*                -12.528622002 Ry
:3P 004: 3P                 -12.026422521 Ry
:CINT001 Core Integral Atom   1   67.995052
:CINT002 Core Integral Atom   2   35.999909
:CINT003 Core Integral Atom   3   17.999989
:CINT004 Core Integral Atom   4   17.999989

       DENSITY AT NUCLEUS
        JATOM        VALENCE       SEMI-CORE          CORE           TOTAL
:RTO001:   1     1947.810890        0.000000  9911352.888561  9913300.699451
:RTO002:   2      320.955132        0.000000   438170.993758   438491.948890
:RTO003:   3       73.572114        0.000000    45839.118218    45912.690331
:RTO004:   4       73.557904        0.000000    45839.118205    45912.676109
     
       CHARGES OF NEW CHARGE DENSITY
:NTO   : INTERSTITIAL CHARGE =    34.197252
:NPC   : PW Pseudocharge     =   103.264418
:NTO001: CHARGE SPHERE  1    =    79.315624
:NTO002: CHARGE SPHERE  2    =    52.296477
:NTO003: CHARGE SPHERE  3    =    33.944050
:NTO004: CHARGE SPHERE  4    =    33.944728

:NEC01: NUCLEAR AND ELECTRONIC CHARGE    968.00000   967.97968
     
       CHARGES OF OLD CHARGE DENSITY
:OTO   : INTERSTITIAL CHARGE =    36.554718
:OPC   : PW Pseudocharge     =   113.536444
:OTO001: CHARGE SPHERE  1    =    79.796963
:OTO002: CHARGE SPHERE  2    =    52.317397
:OTO003: CHARGE SPHERE  3    =    33.582715
:OTO004: CHARGE SPHERE  4    =    33.582123

:NEC02: NUCLEAR AND ELECTRONIC CHARGE    968.00000   968.00000
     
       CONVERGENCE TEST
:DTO001: DIFFERENCE IN SPHERE  1 =  0.2490725
:DTO002: DIFFERENCE IN SPHERE  2 =  0.0705887
:DTO003: DIFFERENCE IN SPHERE  3 =  0.1824004
:DTO004: DIFFERENCE IN SPHERE  4 =  0.1830904

:DIS  :  CHARGE DISTANCE       ( 0.2490725 for atom    1 spin 1)      0.1736485
 PW Mixed is         2247
 
******************************************************
* MULTISECANT MIXING VER9 RELEASE 10.4.0              *
* Slow Mode, cautious                                *
* Fixed density scale                                *
* Regularization       1.000E-04                     *
* Step Trust Radius    0.75000                       *
* Trust Upper Limit    2.000E+00                     *
* Max Number of Memory Steps   12                    *
******************************************************
 
:PWTMP   3.9481E+03  2.5000E+03  5.2571E+03
:PLANE:  PW TOTAL      8.9288 DISTAN   1.03E+00  1.16E+01 %
:CHARG:  CLM/ATOM   1115.9674 DISTAN   2.07E-01  1.86E-02 %
 
Step History
        DMIX         DMIXT        Red     Pred      Trust     Lambda    MagRel    MagAbs     Beta
  1   3.5000E-02   3.5000E-02 -1.00E+00  1.00E+00 -1.00E+01  1.00E+00  3.50E-02  3.50E-02  1.00E+00
  2   2.5000E-02   2.5000E-02 -1.00E+00  1.00E+00 -1.00E+01  1.00E+00  2.50E-02  8.99E-02  1.00E+00
:JACOBIANS    4.978E-01   6.952E-05
  
:TRUST:  Step 4.30E-02  Charge 7.50E-02 (e) CTO  4.43E-01 (e) PW  6.21E-01 (e)
:DIRM :  MEMORY  1/12 SCALE   1.000
:MIX  :   PRATT  REGULARIZATION:  1.00E-04 GREED: 0.04301  Expand 1.72  0.0430                
     
       CHARGES OF MIXED CHARGE DENSITY
:CTO   : INTERSTITIAL CHARGE =    36.538144
:CPC   : PW Pseudocharge     =   108.795179
:CTO001: CHARGE SPHERE  1    =    79.793602
:CTO002: CHARGE SPHERE  2    =    52.317241
:CTO003: CHARGE SPHERE  3    =    33.585263
:CTO004: CHARGE SPHERE  4    =    33.584679

:NEC03: NUCLEAR AND ELECTRONIC CHARGE    968.00000   968.00000

PW CHANGE     H    K    L      Current       Change    Residue
:PTO001:      0    0    0  2.76452927E-02 -9.050E-04 -2.387E-03
:PTO006:     -1    0   -1 -2.44478675E-03  7.161E-05  1.244E-04
:PTO007:      0    0   -2  3.02884107E-03 -5.114E-04 -1.410E-03
:PTO008:     -1   -1    0  5.68252932E-03 -1.057E-03 -2.772E-03
:PTO009:     -1   -1   -1 -1.05764341E-02  4.128E-04  6.351E-04
:PTO012:      0   -2    0  7.19543468E-03 -8.106E-04 -1.672E-03
:PTO013:     -1   -1   -2  2.27423271E-02 -3.073E-03 -6.846E-03
:PTO014:     -2    0    0  7.13221293E-03 -8.247E-04 -1.680E-03
:PTO015:      0   -2   -1  5.81125496E-03 -2.972E-04 -6.258E-04
:PTO018:     -1   -2    0 -1.06681726E-02  3.318E-04  3.154E-04
:PTO019:     -2   -1    0  1.17281349E-02 -3.733E-04 -3.628E-04
:PTO021:     -1   -2   -1  1.22309321E-02 -3.961E-04 -3.909E-04

:ENE  : ********** TOTAL ENERGY IN Ry =      -292313.12534330

       TOTAL FORCE IN mRy/a.u. = |F|     Fx             Fy             Fz     with/without FOR in case.in2
:FOR001:   1.ATOM          0.000          0.000          0.000          0.000 partial forces
:FOR002:   2.ATOM          4.203          4.182          0.423          0.000 partial forces
:FOR003:   3.ATOM         99.552        -40.651        -90.874          0.000 partial forces
:FOR004:   4.ATOM         75.888         23.131         46.595         55.253 partial forces
       TOTAL FORCE WITH RESPECT TO GLOBAL CARTESIAN COORDINATES:
:FCA001:   1.ATOM                         0.000          0.000          0.000 partial forces
:FCA002:   2.ATOM                         4.182          0.423          0.000 partial forces
:FCA003:   3.ATOM                       -40.651        -90.874          0.000 partial forces
:FCA004:   4.ATOM                        23.131         46.595         55.253 partial forces
       TOTAL FORCE WITH RESPECT TO THE GLOBAL COORDINATE SYSTEM:
:FGL001:   1.ATOM                 0.000000000     0.000000000     0.000000000 partial forces
:FGL002:   2.ATOM                 4.181690431     0.422778948     0.000000000 partial forces
:FGL003:   3.ATOM               -40.650802808   -90.873673886     0.000000000 partial forces
:FGL004:   4.ATOM                23.131299432    46.595285981    55.252786873 partial forces
 Flat Integration
 New Mode for Coulomb Integral
 Consistent 3/8+Simpson combinations
 Extension of core to zero
 LDM version in phi
 Fifth-order quadrature in outwin


            ---------
:ITE003:  3. ITERATION
            ---------

:NATO :    4 INDEPENDENT AND   20 TOTAL ATOMS IN UNITCELL
       SUBSTANCE: blebleble                                                   

       LATTICE                      = P   
:POT  : POTENTIAL OPTION EX_PBE EC_PBE VX_PBE VC_PBE
:LAT  : LATTICE CONSTANTS= 15.19415 15.66734 22.08372    1.571    1.571    1.571
:VOL  : UNIT CELL VOLUME =    5257.07306
       MODE OF CALCULATION IS       = RELA
       NON-SPINPOLARIZED CALCULATION
:IFFT  : FFT-parameters:  120  120  180 Factor: 2.00


   CONVERGENCE PARAMETER FOR PSEUDOCHARGE: NCON=  9
   MAXIMAL VALUE OF RMT(JATOM)*ABSK(NKK) : RK  =29.99804


:VKCOUL :  VK-COUL convergence: 0.225E-08
       ATOMNUMBER=  1 Pb         VCOUL-ZERO =  0.92298E-01
:EFG001:                        EFG         =     0.03604   *10**21  V / m**2
                               V20  TOT/SRF=    -0.02116     0.00188
                               V22  TOT/SRF=     0.00754    -0.00071
                               V22M TOT/SRF=     0.02039    -0.00082
                               V21  TOT/SRF=    -0.00895     0.00315
                               V21M TOT/SRF=    -0.00676    -0.00510

              0.01976    0.02039   -0.00895        0.03604    0.00000    0.00000
              0.02039    0.00467   -0.00676        0.00000   -0.00951    0.00000
             -0.00895   -0.00676   -0.02444        0.00000    0.00000   -0.02653

         MAIN DIRECTIONS OF THE EFG   1.0000 -0.7057  0.1374
                                      0.6989  1.0000  0.1269
                                     -0.2261 -0.0299  1.0000
:ANG001:  ANGLE WITH OLD X-AXIS =        35.7

:ETA001:                         ASYMM. ETA =     0.47212


       ATOMNUMBER=  2 Cs         VCOUL-ZERO = -0.59734E-01
:EFG002:                        EFG         =     0.05845   *10**21  V / m**2
                               V20  TOT/SRF=    -0.01225    -0.00045
                               V22  TOT/SRF=     0.01029    -0.00050
                               V22M TOT/SRF=     0.05034    -0.00101
                               V21  TOT/SRF=     0.00000     0.00000
                               V21M TOT/SRF=     0.00000     0.00000

              0.01736    0.05034    0.00000        0.05845    0.00000    0.00000
              0.05034   -0.00322    0.00000        0.00000   -0.04431    0.00000
              0.00000    0.00000   -0.01414        0.00000    0.00000   -0.01414

         MAIN DIRECTIONS OF THE EFG   1.0000 -0.8162  0.0000
                                      0.8162  1.0000  0.0000
                                      0.0000  0.0000  1.0000
:ANG002:  ANGLE WITH OLD X-AXIS =        39.2

:ETA002:                         ASYMM. ETA =     0.51614


       ATOMNUMBER=  3 Br         VCOUL-ZERO =  0.27245E+00
:EFG003:                        EFG         =     0.39283   *10**21  V / m**2
                               V20  TOT/SRF=     0.34020     0.06382
                               V22  TOT/SRF=     0.02353     0.00572
                               V22M TOT/SRF=    -0.02188    -0.01135
                               V21  TOT/SRF=     0.00000     0.00000
                               V21M TOT/SRF=     0.00000     0.00000

             -0.17288   -0.02188    0.00000       -0.16429    0.00000    0.00000
             -0.02188   -0.21995    0.00000        0.00000   -0.22855    0.00000
              0.00000    0.00000    0.39283        0.00000    0.00000    0.39283

         MAIN DIRECTIONS OF THE EFG   1.0000  0.3930  0.0000
                                     -0.3930  1.0000  0.0000
                                      0.0000  0.0000  1.0000
:ANG003:  ANGLE WITH OLD X-AXIS =        21.5

:ETA003:                         ASYMM. ETA =     0.16358


       ATOMNUMBER=  4 Br         VCOUL-ZERO =  0.27251E+00
:EFG004:                        EFG         =     0.37151   *10**21  V / m**2
                               V20  TOT/SRF=    -0.15383    -0.02760
                               V22  TOT/SRF=    -0.01839    -0.00450
                               V22M TOT/SRF=    -0.28080    -0.05252
                               V21  TOT/SRF=    -0.03151    -0.00408
                               V21M TOT/SRF=     0.00694     0.00787

              0.07043   -0.28080   -0.03151        0.37151    0.00000    0.00000
             -0.28080    0.10720    0.00694        0.00000   -0.20523    0.00000
             -0.03151    0.00694   -0.17763        0.00000    0.00000   -0.16628

         MAIN DIRECTIONS OF THE EFG  -0.9396  1.0000 -0.4726
                                      1.0000  0.8783 -0.5106
                                      0.0666  0.9210  1.0000
:ANG004:  ANGLE WITH OLD X-AXIS =       130.3

:ETA004:                         ASYMM. ETA =     0.10484


     HELLMANN-FEYNMAN-FORCE IN mRy/a.u. = |F|  Fx       Fy             Fz
:FHF001:   1.ATOM      0.000000000000      0.000000000000      0.000000000000      0.000000000000

     HELLMANN-FEYNMAN-FORCE IN mRy/a.u. = |F|  Fx       Fy             Fz
:FHF002:   2.ATOM     12.639374434065     12.501774366769      1.859952624908      0.000000000000

     HELLMANN-FEYNMAN-FORCE IN mRy/a.u. = |F|  Fx       Fy             Fz
:FHF003:   3.ATOM    202.057365768264    -77.954820715546   -186.414122288031      0.000000000000

     HELLMANN-FEYNMAN-FORCE IN mRy/a.u. = |F|  Fx       Fy             Fz
:FHF004:   4.ATOM    148.167573501077     42.462927308630     90.898555937115    109.032023599153

:FIT001: LUSE= 13 SIGMA OF V-XC FIT FOR ATOM  1  0.7733990E-03
:FIT001: LUSE= 13 SIGMA OF V-XC FIT FOR ATOM  1  0.7733990E-03
:FIT002: LUSE= 13 SIGMA OF V-XC FIT FOR ATOM  2  0.1723431E-04
:FIT002: LUSE= 13 SIGMA OF V-XC FIT FOR ATOM  2  0.1723431E-04
:FIT003: LUSE= 13 SIGMA OF V-XC FIT FOR ATOM  3  0.7129153E-03
:FIT003: LUSE= 13 SIGMA OF V-XC FIT FOR ATOM  3  0.7129153E-03
:FIT004: LUSE= 13 SIGMA OF V-XC FIT FOR ATOM  4  0.6337934E-03
:FIT004: LUSE= 13 SIGMA OF V-XC FIT FOR ATOM  4  0.6337934E-03
:DEN  : DENSITY INTEGRAL  =       -114050.65997391   (Ry)
       ELS_POTENTIAL_AT Z=0 and Z=0.5:  -0.53566  -0.53566
       ELS_POTENTIAL_AT Y=0 and Y=0.5:  -0.44805  -0.44805
:VZERO:v0,v0c,v0x  -1.24771  -0.53566  -0.71205 v5,v5c,v5x  -1.24771  -0.53566  -0.71205
:VZERY:v0,v0c,v0x  -1.07993  -0.44805  -0.63188 v5,v5c,v5x  -1.07993  -0.44805  -0.63188
:VZERX:v0,v0c,v0x  -1.07239  -0.44700  -0.62540 v5,v5c,v5x  -1.07239  -0.44700  -0.62540
:LMAX-WF:   10   Non-Spherical LMAX:   4

          ATOMIC SPHERE DEPENDENT PARAMETERS FOR ATOM  Pb        
:e__0001: OVERALL ENERGY PARAMETER IS    0.0018
          OVERALL BASIS SET ON ATOM IS LAPW
:E2_0001: E( 2)=    0.4018
             APW+lo
:E2_0001: E( 2)=   -0.9573   E(BOTTOM)=   -1.194   E(TOP)=   -0.720  2  3   130
             LOCAL ORBITAL
:E0_0001: E( 0)=    0.0018
             APW+lo
:E1_0001: E( 1)=    0.0018
             APW+lo

          ATOMIC SPHERE DEPENDENT PARAMETERS FOR ATOM  Cs        
:e__0002: OVERALL ENERGY PARAMETER IS    0.0018
          OVERALL BASIS SET ON ATOM IS LAPW
:E2_0002: E( 2)=    0.0018
             APW+lo
:E2_0002: E( 2)=   -4.8680   E(BOTTOM)=   -4.880   E(TOP)=   -4.856  1  2   120
             LOCAL ORBITAL
:E0_0002: E( 0)=    0.4018
             APW+lo
:E0_0002: E( 0)=   -1.3766   E(BOTTOM)=   -2.059   E(TOP)=   -0.694  4  5   169
             LOCAL ORBITAL
:E1_0002: E( 1)=    0.4018
             APW+lo
:E1_0002: E( 1)=   -0.2037   E(BOTTOM)=   -1.176   E(TOP)=    0.768  3  4   196
             LOCAL ORBITAL

          ATOMIC SPHERE DEPENDENT PARAMETERS FOR ATOM  Br        
:e__0003: OVERALL ENERGY PARAMETER IS    0.0018
          OVERALL BASIS SET ON ATOM IS LAPW
:E2_0003: E( 2)=    0.0018
             APW+lo
:E2_0003: E( 2)=   -4.3451   E(BOTTOM)=   -4.348   E(TOP)=   -4.342  1  1   124
             LOCAL ORBITAL
:E0_0003: E( 0)=    0.4018
             APW+lo
:E0_0003: E( 0)=   -0.9523   E(BOTTOM)=   -1.518   E(TOP)=   -0.386  3  4   154
             LOCAL ORBITAL
:E1_0003: E( 1)=    0.0018
             APW+lo

          ATOMIC SPHERE DEPENDENT PARAMETERS FOR ATOM  Br        
:e__0004: OVERALL ENERGY PARAMETER IS    0.0018
          OVERALL BASIS SET ON ATOM IS LAPW
:E2_0004: E( 2)=    0.0018
             APW+lo
:E2_0004: E( 2)=   -4.3451   E(BOTTOM)=   -4.348   E(TOP)=   -4.342  1  1   120
             LOCAL ORBITAL
:E0_0004: E( 0)=    0.4018
             APW+lo
:E0_0004: E( 0)=   -0.9523   E(BOTTOM)=   -1.518   E(TOP)=   -0.386  3  4   154
             LOCAL ORBITAL
:E1_0004: E( 1)=    0.0018
             APW+lo

       K=   0.02778   0.02941   0.04167            1
:RKM  : MATRIX SIZE  2238LOs: 308  RKM= 7.00  WEIGHT= 8.00  PGR:    
       EIGENVALUES ARE:
:EIG00001:      -4.8652406   -4.8652231   -4.8652171   -4.8652138   -4.8652131
:EIG00006:      -4.8652100   -4.8652096   -4.8652027   -4.8652012   -4.8651982
:EIG00011:      -4.8651903   -4.8651884   -4.8651785   -4.8651715   -4.8651616
:EIG00016:      -4.8651501   -4.8651445   -4.8651312   -4.8651174   -4.8651103
:EIG00021:      -4.3449814   -4.3449772   -4.3449759   -4.3449674   -4.3449545
:EIG00026:      -4.3449482   -4.3449450   -4.3449402   -4.3449389   -4.3449361
:EIG00031:      -4.3449333   -4.3449273   -4.3446895   -4.3446759   -4.3446736
:EIG00036:      -4.3446708   -4.3446200   -4.3446169   -4.3446107   -4.3446055
:EIG00041:      -4.3446023   -4.3445985   -4.3445952   -4.3445847   -4.3445613
:EIG00046:      -4.3445566   -4.3445448   -4.3445346   -4.3445291   -4.3445265
 
:EIG00051:      -4.3445209   -4.3445167   -4.3443942   -4.3443914   -4.3443880
:EIG00056:      -4.3443788   -4.3439528   -4.3439512   -4.3439428   -4.3439409
:EIG00061:      -4.3439326   -4.3439315   -4.3439285   -4.3439237   -4.3439118
:EIG00066:      -4.3439028   -4.3438969   -4.3438945   -4.3438926   -4.3438910
:EIG00071:      -4.3438890   -4.3438841   -4.3438826   -4.3438809   -4.3438794
:EIG00076:      -4.3438754   -4.3438276   -4.3438231   -4.3438212   -4.3438160
:EIG00081:      -1.3827115   -1.3825469   -1.3823625   -1.3822581   -0.9783590
:EIG00086:      -0.9780706   -0.9780133   -0.9768241   -0.9753442   -0.9721630
:EIG00091:      -0.9536876   -0.9535860   -0.9532658   -0.9530140   -0.9527621
:EIG00096:      -0.9523331   -0.9238256   -0.9236819   -0.9234267   -0.9170160
 
:EIG00101:      -0.9169732   -0.9168987   -0.9167874   -0.9167811   -0.9166728
:EIG00106:      -0.9163153   -0.9162783   -0.9161295   -0.9160191   -0.9159757
:EIG00111:      -0.9156911   -0.9113644   -0.8978396   -0.8853936   -0.8851287
:EIG00116:      -0.8846420   -0.4245724   -0.4239569   -0.4221795   -0.4216138
:EIG00121:      -0.4200498   -0.4195983   -0.4193532   -0.4178085   -0.4177493
:EIG00126:      -0.4175294   -0.4171824   -0.4163339   -0.4153209   -0.3807071
:EIG00131:      -0.3402362   -0.2782429   -0.1570435   -0.1567330   -0.1552196
:EIG00136:      -0.1489423   -0.1481861   -0.1389773   -0.1053761   -0.0870653
:EIG00141:      -0.0839854   -0.0827895   -0.0814763   -0.0742779   -0.0644483
:EIG00146:      -0.0593936   -0.0581536   -0.0547730   -0.0524620   -0.0502703
 
:EIG00151:      -0.0479201   -0.0464261   -0.0459216   -0.0445340   -0.0375361
:EIG00156:      -0.0336661   -0.0334683   -0.0329217   -0.0303238   -0.0291309
:EIG00161:      -0.0278408   -0.0257105   -0.0238518   -0.0235454   -0.0066184
:EIG00166:       0.0478016    0.0960891    0.1504870    0.3251593    0.3278143
:EIG00171:       0.3318717    0.3579857    0.3709889    0.3885731    0.3935224
:EIG00176:       0.4741245    0.4802810    0.4873541    0.4914249    0.5224934
:EIG00181:       0.5229564    0.5275837    0.5350089    0.5392593    0.5402580
:EIG00186:       0.5417342    0.5482928    0.5514925    0.5642597    0.5682341
:EIG00191:       0.5716574    0.5767162    0.5919931    0.5934952    0.5970859
:EIG00196:       0.6034856    0.6067715    0.6103488    0.6117955    0.6196634
 
:EIG00201:       0.6273838    0.6314585    0.6439911    0.6492497    0.6516274
:EIG00206:       0.6661059    0.6692653    0.6818303    0.6877098    0.6940586
:EIG00211:       0.7069162    0.7254279    0.7322884    0.7454859    0.7493525
:EIG00216:       0.7509326    0.7535269    0.7588185    0.7711754    0.7787911
:EIG00221:       0.7793626    0.7836236    0.7860738    0.8268608    0.8471996
:EIG00226:       0.8510530    0.8522320    0.8555616    0.8591629    0.8594631
:EIG00231:       0.8632564    0.8748786    0.8855895    0.8870613    0.8999025
:EIG00236:       0.9198794    0.9299610    0.9430578    0.9491713    0.9524020
:EIG00241:       0.9536757    0.9589396    0.9746192    0.9769149    0.9875436
:EIG00246:       0.9892604    1.0052160    1.0081811    1.0105968    1.0132643
 
:EIG00251:       1.0184495    1.0213651    1.0372142    1.0476698    1.0545689
:EIG00256:       1.0650056    1.0770911    1.0826271    1.0837395    1.0870975
:EIG00261:       1.0877471    1.0937964    1.0964692    1.0985384    1.1037751
:EIG00266:       1.1098658    1.1129798    1.1200539    1.1248120    1.1272006
:EIG00271:       1.1290189    1.1344379    1.1399518    1.1425397    1.1533913
:EIG00276:       1.1582318    1.1620851    1.1647539    1.1693552    1.1698174
:EIG00281:       1.1720463    1.1775492    1.1803281    1.1845563    1.1853593
:EIG00286:       1.1873538    1.1918492    1.1989798    1.2132944    1.2168826
:EIG00291:       1.2189424    1.2220070    1.2236536    1.2296123    1.2350952
:EIG00296:       1.2378469    1.2410857    1.2453200    1.2505325    1.2547699
 
:EIG00301:       1.2638213    1.2657339    1.2749709    1.2816033    1.2820000
:EIG00306:       1.2946624    1.3021185    1.3062245    1.3114198    1.3152259
:EIG00311:       1.3161581    1.3372167    1.3384160    1.3450852    1.3520167
:EIG00316:       1.3602640    1.3658754    1.3752353    1.3783461    1.3829585
:EIG00321:       1.3858965    1.3952108    1.4048383    1.4085329    1.4149570
:EIG00326:       1.4294069    1.4322867    1.4345716    1.4376350    1.4400326
:EIG00331:       1.4458631    1.4488187    1.4504469    1.4551301    1.4646035
:EIG00336:       1.4663114    1.4722545    1.4756216    1.4825004    1.4854074
:EIG00341:       1.4933861    1.4973361    1.5011599    1.5032403    1.5065848
:EIG00346:       1.5149457    1.5174815    1.5207245    1.5218442    1.5271720
 
:EIG00351:       1.5355825    1.5412131    1.5467401    1.5474088    1.5490964
:EIG00356:       1.5614679    1.5654303    1.5718885    1.5796911    1.5817213
:EIG00361:       1.5881085    1.5959426    1.6089676    1.6118114    1.6285598
:EIG00366:       1.6300519    1.6371835    1.6390876    1.6483644    1.6538182
:EIG00371:       1.6543427    1.6599585    1.6643109    1.6717489    1.6776703
:EIG00376:       1.6787490    1.6848262    1.6872267    1.6955331
       ********************************************************

:KPT   :      NUMBER OF K-POINTS:   486
       Insulator, EF-inconsistency corrected
:GAP (global)   :  0.174672 Ry =     2.377 eV (accurate value if proper k-mesh)
         Bandranges (emin - emax) and occupancy:
:BAN00158: 158   -0.042455   -0.031190  2.00000000
:BAN00159: 159   -0.039372   -0.030324  2.00000000
:BAN00160: 160   -0.039372   -0.029131  2.00000000
:BAN00161: 161   -0.035459   -0.027818  2.00000000
:BAN00162: 162   -0.034815   -0.025027  2.00000000
:BAN00163: 163   -0.029356   -0.019494  2.00000000
:BAN00164: 164   -0.029178   -0.019494  2.00000000
:BAN00165: 165   -0.006618    0.054285  2.00000000
:BAN00166: 166    0.005794    0.060588  2.00000000
:BAN00167: 167    0.031447    0.108841  2.00000000
:BAN00168: 168    0.037619    0.150487  2.00000000
:BAN00169: 169    0.325159    0.430494  0.00000000
:BAN00170: 170    0.327814    0.430494  0.00000000
:BAN00171: 171    0.331872    0.432848  0.00000000
:BAN00172: 172    0.352822    0.438723  0.00000000
:BAN00173: 173    0.367002    0.442237  0.00000000
        Energy to separate low and high energystates:   -0.47457


:NOE  : NUMBER OF ELECTRONS          =  336.000

:FER  : F E R M I - ENERGY(TETRAH.M.)=   0.1504870275
:GMA  : POTENTIAL AND CHARGE CUT-OFF  12.00 Ry**.5

:POS001: ATOM   -1 X,Y,Z = 0.50000 0.50000 0.50000  MULT= 4  ZZ= 82.000  Pb        

       LMMAX 28
       LM=   0 0  2 0  2 1 -2 1  2 2 -2 2  4 0  4 1 -4 1  4 2 -4 2  4 3 -4 3  4 4 -4 4  6 0  6 1
        -6 1  6 2 -6 2  6 3 -6 3  6 4 -6 4  6 5 -6 5  6 6 -6 6

:CHA001: TOTAL VALENCE CHARGE INSIDE SPHERE   1 =  11.3233    (RMT=  2.5000 )
:PCS001: PARTIAL CHARGES SPHERE =  1 S,P,D,F,PX,PY,PZ,D-Z2,D-X2Y2,D-XY,D-XZ,D-YZ 
:QTL001: 1.3326 0.2711 9.7047 0.0126 0.0895 0.0902 0.0914 1.9488 1.9370 1.9474 1.9361 1.9354
        Q-s-low E-s-low   Q-p-low E-p-low   Q-d-low E-d-low   Q-f-low E-f-low
:EPL001:  0.0185 -0.9602    0.0089 -0.9517    9.6299 -0.9184    0.0010 -0.9617
        Q-s-hi  E-s-hi    Q-p-hi  E-p-hi    Q-d-hi  E-d-hi    Q-f-hi  E-f-hi 
:EPH001:  1.3141 -0.2347    0.2622 -0.0991    0.0748 -0.0635    0.0115 -0.0651

                      QXX         QXY         QYY         QZZ       UP TO R
:VZZ001:             0.65311     0.66992     0.13992    -0.79303       2.500

:POS002: ATOM   -2 X,Y,Z = 0.48491 0.94655 0.25000  MULT= 4  ZZ= 55.000  Cs        

       LMMAX 28
       LM=   0 0  1 1 -1 1  2 0  2 2 -2 2  3 1 -3 1  3 3 -3 3  4 0  4 2 -4 2  4 4 -4 4  5 1 -5 1
         5 3 -5 3  5 5 -5 5  6 0  6 2 -6 2  6 4 -6 4  6 6 -6 6

:CHA002: TOTAL VALENCE CHARGE INSIDE SPHERE   2 =  16.2972    (RMT=  2.5000 )
:PCS002: PARTIAL CHARGES SPHERE =  2 S,P,D,F,PX,PY,PZ,D-Z2,D-X2Y2,D-XY,D-XZ,D-YZ 
:QTL002: 1.7962 4.489410.0095 0.0018 1.4957 1.4966 1.4971 2.0014 2.0023 2.0011 2.0020 2.0027
        Q-s-low E-s-low   Q-p-low E-p-low   Q-d-low E-d-low   Q-f-low E-f-low
:EPL002:  1.7867 -1.3821    0.0022 -0.9511    9.9946 -4.8651    0.0001 -1.0290
        Q-s-hi  E-s-hi    Q-p-hi  E-p-hi    Q-d-hi  E-d-hi    Q-f-hi  E-f-hi 
:EPH002:  0.0095 -0.0831    4.4872 -0.4067    0.0149 -0.0580    0.0017 -0.0510

                      QXX         QXY         QYY         QZZ       UP TO R
:VZZ002:             0.56051     1.62498    -0.11558    -0.44493       2.500

:POS003: ATOM   -3 X,Y,Z = 0.56000 0.50750 0.25000  MULT= 4  ZZ= 35.000  Br        

       LMMAX 28
       LM=   0 0  1 1 -1 1  2 0  2 2 -2 2  3 1 -3 1  3 3 -3 3  4 0  4 2 -4 2  4 4 -4 4  5 1 -5 1
         5 3 -5 3  5 5 -5 5  6 0  6 2 -6 2  6 4 -6 4  6 6 -6 6

:CHA003: TOTAL VALENCE CHARGE INSIDE SPHERE   3 =  15.9414    (RMT=  2.5000 )
:PCS003: PARTIAL CHARGES SPHERE =  3 S,P,D,F,PX,PY,PZ,D-Z2,D-X2Y2,D-XY,D-XZ,D-YZ 
:QTL003: 1.7963 4.128110.0140 0.0024 1.3955 1.3995 1.3330 2.0109 2.0004 2.0002 2.0017 2.0010
        Q-s-low E-s-low   Q-p-low E-p-low   Q-d-low E-d-low   Q-f-low E-f-low
:EPL003:  1.7648 -0.9533    0.0061 -0.9215   10.0001 -4.3438    0.0006 -0.9317
        Q-s-hi  E-s-hi    Q-p-hi  E-p-hi    Q-d-hi  E-d-hi    Q-f-hi  E-f-hi 
:EPH003:  0.0315 -0.2533    4.1220 -0.0654    0.0140 -0.1224    0.0018 -0.1718

                      QXX         QXY         QYY         QZZ       UP TO R
:VZZ003:            -5.44106    -0.34451    -6.68050    12.12156       2.500

:POS004: ATOM   -4 X,Y,Z = 0.19962 0.70227 0.46752  MULT= 8  ZZ= 35.000  Br        

       LMMAX 49

:CHA004: TOTAL VALENCE CHARGE INSIDE SPHERE   4 =  15.9420    (RMT=  2.5000 )
:PCS004: PARTIAL CHARGES SPHERE =  4 S,P,D,F,PX,PY,PZ,D-Z2,D-X2Y2,D-XY,D-XZ,D-YZ 
:QTL004: 1.7961 4.129410.0136 0.0024 1.3680 1.3648 1.3966 2.0027 2.0019 2.0073 2.0008 2.0009
        Q-s-low E-s-low   Q-p-low E-p-low   Q-d-low E-d-low   Q-f-low E-f-low
:EPL004:  1.7653 -0.9532    0.0059 -0.9205   10.0000 -4.3438    0.0006 -0.9343
        Q-s-hi  E-s-hi    Q-p-hi  E-p-hi    Q-d-hi  E-d-hi    Q-f-hi  E-f-hi 
:EPH004:  0.0308 -0.2538    4.1236 -0.0653    0.0136 -0.1249    0.0018 -0.1664

                      QXX         QXY         QYY         QZZ       UP TO R
:VZZ004:             2.30677    -8.65607     3.28775    -5.59453       2.500

:CHA  : TOTAL VALENCE CHARGE INSIDE UNIT CELL =     336.000000

:SUM  : SUM OF EIGENVALUES =        -803.615651301


        1.ATOM      Pb                   19 CORE STATES
:1S 001: 1S               -6465.881675172 Ry
:2S 001: 2S               -1154.927894909 Ry
:2PP001: 2P*              -1108.918534691 Ry
:2P 001: 2P                -947.959795462 Ry
:3S 001: 3S                -276.717209907 Ry
:3PP001: 3P*               -255.991915108 Ry
:3P 001: 3P                -220.078102270 Ry
:3DD001: 3D*               -186.086469737 Ry
:3D 001: 3D                -178.446151284 Ry
:4S 001: 4S                 -62.151883009 Ry
:4PP001: 4P*                -53.187070319 Ry
:4P 001: 4P                 -44.396375576 Ry
:4DD001: 4D*                -29.815561588 Ry
:4D 001: 4D                 -28.175365053 Ry
:5S 001: 5S                  -9.926650959 Ry
:5PP001: 5P*                 -6.871461027 Ry
:5P 001: 5P                  -5.229979574 Ry
:4FF001: 4F*                 -9.302933718 Ry
:4F 001: 4F                  -8.933199596 Ry

        2.ATOM      Cs                   12 CORE STATES
       CORE-FORCE in mRy/a.u. = |F|      Fx             Fy             Fz
:FCO002:   2.ATOM      8.488291824984     -8.385582712488     -1.316472817082      0.000000000000

:1S 002: 1S               -2628.602399599 Ry
:2S 002: 2S                -411.675393787 Ry
:2PP002: 2P*               -387.238232204 Ry
:2P 002: 2P                -361.346444694 Ry
:3S 002: 3S                 -85.125000819 Ry
:3PP002: 3P*                -74.921607435 Ry
:3P 002: 3P                 -69.959728706 Ry
:3DD002: 3D*                -52.040483101 Ry
:3D 002: 3D                 -50.987149356 Ry
:4S 002: 4S                 -15.590420703 Ry
:4PP002: 4P*                -11.929562619 Ry
[...]
:EIG00141:      -0.0559465   -0.0550653   -0.0538958   -0.0477847   -0.0385088
:EIG00146:      -0.0281746   -0.0274706   -0.0267838   -0.0235426   -0.0219141
 
:EIG00151:      -0.0213400   -0.0190850   -0.0157701   -0.0147070   -0.0144061
:EIG00156:      -0.0138243   -0.0124212   -0.0057532    0.0005434    0.0016425
:EIG00161:       0.0035050    0.0077798    0.0107466    0.0133284    0.0248526
:EIG00166:       0.0415961    0.0797620    0.1268841    0.2664745    0.2674582
:EIG00171:       0.2756842    0.2979953    0.3107311    0.3270862    0.4065320
:EIG00176:       0.4854791    0.4875745    0.4917384    0.4967430    0.5014975
:EIG00181:       0.5046839    0.5073543    0.5203775    0.5270915    0.5354306
:EIG00186:       0.5399389    0.5436962    0.5446293    0.5495978    0.5521829
:EIG00191:       0.5573376    0.5598301    0.5653190    0.5793856    0.5836889
:EIG00196:       0.5866089    0.6085386    0.6115717    0.6138665    0.6226948
 
:EIG00201:       0.6243132    0.6265700    0.6374923    0.6478521    0.6500444
:EIG00206:       0.6676552    0.6712716    0.6746414    0.6890898    0.6985564
:EIG00211:       0.7107360    0.7192911    0.7343441    0.7370439    0.7471653
:EIG00216:       0.7502844    0.7553060    0.7660499    0.7743927    0.7858094
:EIG00221:       0.7880876    0.7912455    0.7939065    0.8202646    0.8409805
:EIG00226:       0.8431284    0.8506310    0.8511611    0.8542108    0.8595031
:EIG00231:       0.8660484    0.8715588    0.8737311    0.8822946    0.9036423
:EIG00236:       0.9204340    0.9252653    0.9349694    0.9453668    0.9481439
:EIG00241:       0.9532733    0.9578755    0.9604340    0.9774608    0.9808687
:EIG00246:       0.9845250    0.9857339    1.0031048    1.0104395    1.0124265
 
:EIG00251:       1.0145967    1.0153667    1.0340096    1.0433578    1.0506817
:EIG00256:       1.0532540    1.0681423    1.0732577    1.0810787    1.0825922
:EIG00261:       1.0851502    1.0935514    1.0976877    1.1010047    1.1034156
:EIG00266:       1.1068533    1.1105520    1.1176609    1.1217072    1.1263838
:EIG00271:       1.1283005    1.1321750    1.1402222    1.1435297    1.1496524
:EIG00276:       1.1565819    1.1589411    1.1605716    1.1642357    1.1676152
:EIG00281:       1.1707593    1.1729964    1.1744304    1.1783157    1.1805352
:EIG00286:       1.1843706    1.1902944    1.1949311    1.2072829    1.2125381
:EIG00291:       1.2150133    1.2176347    1.2246072    1.2279996    1.2345790
:EIG00296:       1.2376173    1.2391180    1.2433276    1.2502645    1.2523001
 
:EIG00301:       1.2593505    1.2612679    1.2675444    1.2759451    1.2801981
:EIG00306:       1.2881346    1.2959078    1.2988314    1.3005367    1.3035529
:EIG00311:       1.3116426    1.3286430    1.3310736    1.3349000    1.3444885
:EIG00316:       1.3476276    1.3576046    1.3664428    1.3753595    1.3787129
:EIG00321:       1.3848981    1.3897112    1.3929269    1.4006644    1.4025328
:EIG00326:       1.4179506    1.4210921    1.4232259    1.4302067    1.4306365
:EIG00331:       1.4347741    1.4396085    1.4430042    1.4466543    1.4535003
:EIG00336:       1.4628405    1.4690649    1.4783612    1.4815763    1.4826333
:EIG00341:       1.4855281    1.4876739    1.4885567    1.4974821    1.5011924
:EIG00346:       1.5100274    1.5168810    1.5210775    1.5250634    1.5260102
 
:EIG00351:       1.5312994    1.5346408    1.5395779    1.5424699    1.5501703
:EIG00356:       1.5586354    1.5603313    1.5630977    1.5732324    1.5804875
:EIG00361:       1.5849890    1.5873828    1.6097914    1.6109640    1.6184391
:EIG00366:       1.6201325
       ********************************************************

:KPT   :      NUMBER OF K-POINTS:   486
       Insulator, EF-inconsistency corrected
:GAP (global)   :  0.139590 Ry =     1.899 eV (accurate value if proper k-mesh)
         Bandranges (emin - emax) and occupancy:
:BAN00158: 158   -0.011199    0.000904  2.00000000
:BAN00159: 159   -0.010303    0.001506  2.00000000
:BAN00160: 160   -0.010068    0.002198  2.00000000
:BAN00161: 161   -0.008488    0.004407  2.00000000
:BAN00162: 162   -0.008488    0.007780  2.00000000
:BAN00163: 163    0.003597    0.013586  2.00000000
:BAN00164: 164    0.004551    0.013586  2.00000000
:BAN00165: 165    0.017157    0.043374  2.00000000
:BAN00166: 166    0.020114    0.048926  2.00000000
:BAN00167: 167    0.023336    0.088227  2.00000000
:BAN00168: 168    0.025829    0.126884  2.00000000
:BAN00169: 169    0.266474    0.389907  0.00000000
:BAN00170: 170    0.267458    0.389907  0.00000000
:BAN00171: 171    0.275684    0.392724  0.00000000
:BAN00172: 172    0.295243    0.397837  0.00000000
:BAN00173: 173    0.307162    0.402370  0.00000000
        Energy to separate low and high energystates:   -0.21400


:NOE  : NUMBER OF ELECTRONS          =  336.000

:FER  : F E R M I - ENERGY(TETRAH.M.)=   0.1268841479
:GMA  : POTENTIAL AND CHARGE CUT-OFF  12.00 Ry**.5

:POS001: ATOM   -1 X,Y,Z = 0.50000 0.50000 0.50000  MULT= 4  ZZ= 82.000  Pb        

       LMMAX 28
       LM=   0 0  2 0  2 1 -2 1  2 2 -2 2  4 0  4 1 -4 1  4 2 -4 2  4 3 -4 3  4 4 -4 4  6 0  6 1
        -6 1  6 2 -6 2  6 3 -6 3  6 4 -6 4  6 5 -6 5  6 6 -6 6

:CHA001: TOTAL VALENCE CHARGE INSIDE SPHERE   1 =  11.5214    (RMT=  2.5000 )
:PCS001: PARTIAL CHARGES SPHERE =  1 S,P,D,F,PX,PY,PZ,D-Z2,D-X2Y2,D-XY,D-XZ,D-YZ 
:QTL001: 1.3766 0.3923 9.7353 0.0147 0.1303 0.1309 0.1311 1.9553 1.9427 1.9541 1.9419 1.9413
        Q-s-low E-s-low   Q-p-low E-p-low   Q-d-low E-d-low   Q-f-low E-f-low
:EPL001:  1.0870 -0.4650    0.0162 -0.7973    9.6678 -1.0789    0.0015 -0.8526
        Q-s-hi  E-s-hi    Q-p-hi  E-p-hi    Q-d-hi  E-d-hi    Q-f-hi  E-f-hi 
:EPH001:  0.2897  0.0275    0.3760 -0.0995    0.0676 -0.0370    0.0133 -0.0398

                      QXX         QXY         QYY         QZZ       UP TO R
:VZZ001:             0.37986     0.73637    -0.14586    -0.23400       2.500

:POS002: ATOM   -2 X,Y,Z = 0.48491 0.94655 0.25000  MULT= 4  ZZ= 55.000  Cs        

       LMMAX 28
       LM=   0 0  1 1 -1 1  2 0  2 2 -2 2  3 1 -3 1  3 3 -3 3  4 0  4 2 -4 2  4 4 -4 4  5 1 -5 1
         5 3 -5 3  5 5 -5 5  6 0  6 2 -6 2  6 4 -6 4  6 6 -6 6

:CHA002: TOTAL VALENCE CHARGE INSIDE SPHERE   2 =  16.3232    (RMT=  2.5000 )
:PCS002: PARTIAL CHARGES SPHERE =  2 S,P,D,F,PX,PY,PZ,D-Z2,D-X2Y2,D-XY,D-XZ,D-YZ 
:QTL002: 1.7981 4.510610.0124 0.0020 1.5026 1.5036 1.5043 2.0019 2.0029 2.0016 2.0025 2.0034
        Q-s-low E-s-low   Q-p-low E-p-low   Q-d-low E-d-low   Q-f-low E-f-low
:EPL002:  1.7880 -1.3990    4.3813 -0.4331    9.9947 -4.8857    0.0001 -0.9197
        Q-s-hi  E-s-hi    Q-p-hi  E-p-hi    Q-d-hi  E-d-hi    Q-f-hi  E-f-hi 
:EPH002:  0.0101 -0.0523    0.1292 -0.0396    0.0177 -0.0261    0.0019 -0.0176

                      QXX         QXY         QYY         QZZ       UP TO R
:VZZ002:             0.78350     2.19230    -0.08141    -0.70209       2.500

:POS003: ATOM   -3 X,Y,Z = 0.56000 0.50750 0.25000  MULT= 4  ZZ= 35.000  Br        

       LMMAX 28
       LM=   0 0  1 1 -1 1  2 0  2 2 -2 2  3 1 -3 1  3 3 -3 3  4 0  4 2 -4 2  4 4 -4 4  5 1 -5 1
         5 3 -5 3  5 5 -5 5  6 0  6 2 -6 2  6 4 -6 4  6 6 -6 6

:CHA003: TOTAL VALENCE CHARGE INSIDE SPHERE   3 =  15.7598    (RMT=  2.5000 )
:PCS003: PARTIAL CHARGES SPHERE =  3 S,P,D,F,PX,PY,PZ,D-Z2,D-X2Y2,D-XY,D-XZ,D-YZ 
:QTL003: 1.7829 3.959310.0141 0.0029 1.3527 1.3593 1.2474 2.0105 2.0003 2.0002 2.0019 2.0012
        Q-s-low E-s-low   Q-p-low E-p-low   Q-d-low E-d-low   Q-f-low E-f-low
:EPL003:  1.7707 -0.9057    0.0871 -0.4832   10.0046 -4.2857    0.0014 -0.6847
        Q-s-hi  E-s-hi    Q-p-hi  E-p-hi    Q-d-hi  E-d-hi    Q-f-hi  E-f-hi 
:EPH003:  0.0122 -0.0537    3.8722 -0.0344    0.0095 -0.0265    0.0015 -0.0675

                      QXX         QXY         QYY         QZZ       UP TO R
:VZZ003:            -9.13114    -0.26857   -11.05941    20.19055       2.500

:POS004: ATOM   -4 X,Y,Z = 0.19962 0.70227 0.46752  MULT= 8  ZZ= 35.000  Br        

       LMMAX 49

:CHA004: TOTAL VALENCE CHARGE INSIDE SPHERE   4 =  15.7587    (RMT=  2.5000 )
:PCS004: PARTIAL CHARGES SPHERE =  4 S,P,D,F,PX,PY,PZ,D-Z2,D-X2Y2,D-XY,D-XZ,D-YZ 
:QTL004: 1.7828 3.958810.0137 0.0028 1.3050 1.2996 1.3542 2.0026 2.0021 2.0071 2.0009 2.0010
        Q-s-low E-s-low   Q-p-low E-p-low   Q-d-low E-d-low   Q-f-low E-f-low
:EPL004:  1.7707 -0.9045    0.0847 -0.4826   10.0045 -4.2848    0.0014 -0.6870
        Q-s-hi  E-s-hi    Q-p-hi  E-p-hi    Q-d-hi  E-d-hi    Q-f-hi  E-f-hi 
:EPH004:  0.0120 -0.0554    3.8742 -0.0335    0.0092 -0.0289    0.0015 -0.0635

                      QXX         QXY         QYY         QZZ       UP TO R
:VZZ004:             3.99614   -14.39216     5.56850    -9.56464       2.500

:CHA  : TOTAL VALENCE CHARGE INSIDE UNIT CELL =     336.000000

:SUM  : SUM OF EIGENVALUES =        -802.945884890


        1.ATOM      Pb                   19 CORE STATES
:1S 001: 1S               -6466.070337378 Ry
:2S 001: 2S               -1155.106217399 Ry
:2PP001: 2P*              -1109.098921943 Ry
:2P 001: 2P                -948.138659037 Ry
:3S 001: 3S                -276.887537679 Ry
:3PP001: 3P*               -256.162750787 Ry
:3P 001: 3P                -220.248278842 Ry
:3DD001: 3D*               -186.257265942 Ry
:3D 001: 3D                -178.616694849 Ry
:4S 001: 4S                 -62.319094239 Ry
:4PP001: 4P*                -53.354312088 Ry
:4P 001: 4P                 -44.563430577 Ry
:4DD001: 4D*                -29.982497627 Ry
:4D 001: 4D                 -28.342224862 Ry
:5S 001: 5S                 -10.092644283 Ry
:5PP001: 5P*                 -7.037718157 Ry
:5P 001: 5P                  -5.396457602 Ry
:4FF001: 4F*                 -9.469363134 Ry
:4F 001: 4F                  -9.099598950 Ry

        2.ATOM      Cs                   12 CORE STATES
       CORE-FORCE in mRy/a.u. = |F|      Fx             Fy             Fz
:FCO002:   2.ATOM      6.479306589113     -6.279347972967      1.597248543627      0.000000000000

:1S 002: 1S               -2628.651967833 Ry
:2S 002: 2S                -411.714984968 Ry
:2PP002: 2P*               -387.279726562 Ry
:2P 002: 2P                -361.387305345 Ry
:3S 002: 3S                 -85.153308171 Ry
:3PP002: 3P*                -74.950385088 Ry
:3P 002: 3P                 -69.988082131 Ry
:3DD002: 3D*                -52.069831490 Ry
:3D 002: 3D                 -51.016334438 Ry
:4S 002: 4S                 -15.612003614 Ry
:4PP002: 4P*                -11.950984035 Ry
:4P 002: 4P                 -10.938816086 Ry

        3.ATOM      Br                    7 CORE STATES
       CORE-FORCE in mRy/a.u. = |F|      Fx             Fy             Fz
:FCO003:   3.ATOM     82.723524237042    -71.422662379872     41.737090947587      0.000000000000

:1S 003: 1S                -977.915073408 Ry
:2S 003: 2S                -126.709440972 Ry
:2PP003: 2P*               -114.040124119 Ry
:2P 003: 2P                -110.548650308 Ry
:3S 003: 3S                 -16.877422792 Ry
:3PP003: 3P*                -12.472854319 Ry
:3P 003: 3P                 -11.970556964 Ry

        4.ATOM      Br                    7 CORE STATES
       CORE-FORCE in mRy/a.u. = |F|      Fx             Fy             Fz
:FCO004:   4.ATOM    113.416905498536     77.246808252587     63.517448346157     53.496344017560

:1S 004: 1S                -977.914083447 Ry
:2S 004: 2S                -126.708440019 Ry
:2PP004: 2P*               -114.039124607 Ry
:2P 004: 2P                -110.547650570 Ry
:3S 004: 3S                 -16.876407552 Ry
:3PP004: 3P*                -12.471838680 Ry
:3P 004: 3P                 -11.969540860 Ry
:CINT001 Core Integral Atom   1   67.995200
:CINT002 Core Integral Atom   2   35.999909
:CINT003 Core Integral Atom   3   17.999988
:CINT004 Core Integral Atom   4   17.999988

       DENSITY AT NUCLEUS
        JATOM        VALENCE       SEMI-CORE          CORE           TOTAL
:RTO001:   1     2059.536472        0.000000  9911370.683542  9913430.220013
:RTO002:   2      321.521566        0.000000   438173.471943   438494.993509
:RTO003:   3       72.170636        0.000000    45839.372454    45911.543091
:RTO004:   4       72.162792        0.000000    45839.373252    45911.536045
     
       CHARGES OF NEW CHARGE DENSITY
:NTO   : INTERSTITIAL CHARGE =    35.512235
:NPC   : PW Pseudocharge     =   102.661085
:NTO001: CHARGE SPHERE  1    =    79.516636
:NTO002: CHARGE SPHERE  2    =    52.323139
:NTO003: CHARGE SPHERE  3    =    33.759797
:NTO004: CHARGE SPHERE  4    =    33.758718

:NEC01: NUCLEAR AND ELECTRONIC CHARGE    968.00000   967.98027
     
       CHARGES OF OLD CHARGE DENSITY
:OTO   : INTERSTITIAL CHARGE =    35.531257
:OPC   : PW Pseudocharge     =   102.716317
:OTO001: CHARGE SPHERE  1    =    79.516614
:OTO002: CHARGE SPHERE  2    =    52.323105
:OTO003: CHARGE SPHERE  3    =    33.759873
:OTO004: CHARGE SPHERE  4    =    33.758796

:NEC02: NUCLEAR AND ELECTRONIC CHARGE    968.00000   968.00000
     
       CONVERGENCE TEST
:DTO001: DIFFERENCE IN SPHERE  1 =  0.0002323
:DTO002: DIFFERENCE IN SPHERE  2 =  0.0000884
:DTO003: DIFFERENCE IN SPHERE  3 =  0.0000980
:DTO004: DIFFERENCE IN SPHERE  4 =  0.0000982

:DIS  :  CHARGE DISTANCE       ( 0.0002323 for atom    1 spin 1)      0.0001230
 PW Mixed is         2247
 
******************************************************
* MULTISECANT MIXING VER9 RELEASE 10.4.0              *
* Standard Mode with controls                        *
* Fixed density scale                                *
* Regularization       1.000E-04                     *
* Trust Upper Limit    5.000E+00                     *
* Max Number of Memory Steps    8                    *
******************************************************
 
:PWTMP   3.9481E+03  2.5000E+03  5.2571E+03
:PLANE:  PW TOTAL      8.0816 DISTAN   7.79E-04  9.64E-03 %
:CHARG:  CLM/ATOM   1115.9443 DISTAN   1.77E-04  1.58E-05 %
 
Step History
        DMIX         DMIXT        Red     Pred      Trust     Lambda    MagRel    MagAbs     Beta
  2   2.5000E-02   2.5000E-02  3.68E-01  1.00E+00 -1.00E+01  1.00E+00  2.50E-02  8.99E-02  1.00E+00
  3   4.3009E-02   4.3009E-02  8.39E-01  1.00E+00 -1.00E+01  7.98E-02  4.30E-02  5.70E-02  1.00E+00
  4   1.0752E-01   1.0752E-01  8.31E-01  1.00E+00  3.20E-01  1.28E+00  1.08E-01  1.20E-01  9.96E-01
  5   2.4738E-01   1.5049E-01  7.09E-01  7.79E-01  5.99E-01  1.25E+00  2.28E-01  2.11E-01  1.00E+00
  6   3.5000E-01   2.8166E-01  4.64E-01  5.18E-01  1.34E+00  1.08E+00  4.77E-01  3.12E-01  1.00E+00
  7   3.5000E-01   3.5000E-01  7.41E-02  1.62E-01  3.81E+00  8.06E-01  9.78E-01  2.97E-01  1.00E+00
  8   2.7776E-01   2.7776E-01  4.93E-01  6.36E-01  1.50E+01  1.12E+00  4.93E-01  1.11E-02  1.00E+00
  9   3.5000E-01   3.5000E-01  3.12E-01  6.69E-01  1.88E+01  8.72E-01  6.53E-01  7.25E-03  1.00E+00
 10   3.5000E-01   3.5000E-01 -1.00E+00  4.81E-01  2.25E+01  1.00E+00  7.57E-01  2.62E-03  1.00E+00
:JACOBIANS    2.351E+00   1.967E+00
  
:NORMS:  1/Froebius, Min, Max, Used   0.8941E+00  0.6755E+00  0.1017E+01  0.9344E+00
:INFO :  Number of Memory Steps    8 Skipping    1
:INFO :  SLambda=    1.0485702115  Max    1.0485702115
:PREDicted Charge, CTotal, PW Trust    3.148E-04   8.387E-04   2.209E-03
:PREDicted DMix, Beta, BLim   6.8603E-01  1.2665E+00  6.1533E+00

Eigenvalues, unscaled except for SY+YY
   #     SY Real        SY Imag          SS             YY         SY+YY Real      SY+YY Imag
   1   3.829607E+00   0.000000E+00   4.070392E+00   4.661525E+00   8.657413E+00   0.000000E+00
   2   2.151673E+00   0.000000E+00   1.876155E+00   2.440017E+00   4.708650E+00   0.000000E+00
   3   2.870066E-01   0.000000E+00   2.660410E-01   4.641613E-01   7.386287E-01   0.000000E+00
   4   2.517870E-01   0.000000E+00   1.499707E-01   3.162035E-01   6.061105E-01   0.000000E+00
   5   6.278961E-02   0.000000E+00   3.058221E-02   1.133730E-01   1.870008E-01   0.000000E+00
   6   2.016275E-03   0.000000E+00   1.216801E-03   3.488202E-03   5.600284E-03   0.000000E+00
   7   7.214911E-04   0.000000E+00   3.371691E-04   1.218184E-03   1.853038E-05   0.000000E+00
   8   4.337343E-06   0.000000E+00   1.346991E-06   1.393068E-05   2.047511E-03   0.000000E+00
 
:INFO :  Singular value  8.669E+00 Weight  1.000E+00 Projection -6.104E-05
:INFO :  Singular value  4.705E+00 Weight  1.000E+00 Projection  2.157E-04
:INFO :  Singular value  7.397E-01 Weight  1.000E+00 Projection -6.168E-04
:INFO :  Singular value  6.056E-01 Weight  1.000E+00 Projection -4.411E-04
:INFO :  Singular value  1.868E-01 Weight  1.000E+00 Projection  3.974E-04
:INFO :  Singular value  5.603E-03 Weight  9.931E-01 Projection  1.205E-02
:INFO :  Singular value  2.046E-03 Weight  9.507E-01 Projection -1.528E-02
:INFO :  Singular value  1.853E-05 Weight  1.578E-03 Projection  5.117E-05
:RANK :  ACTIVE   6.95/8  =  86.82 % ; YY RANK   6.86/8  =  85.69 %
 
:BLIM :  VZERO Control Off
:TRUST:  Step 2.25E+01  Charge 9.68E-02 (e) CTO  3.43E-01 (e) PW  1.05E+00 (e)
:DIRM :  MEMORY  8/8  SCALE   1.000 RED  0.30 PRED  0.48 NEXT  0.30 
:TRAVE:  Charge 4.66E-03 (e) CTO  1.60E-02 (e) PW  6.48E-02 (e)
:DIRP :  |MSR1|= 7.821E-04 |PRATT|= 7.788E-04 ANGLE=   6.2 DEGREES
:DIRQ :  |MSR1|= 6.156E-04 |PRATT|= 7.062E-04 ANGLE=  16.2 DEGREES
:DIRT :  |MSR1|= 9.953E-04 |PRATT|= 1.051E-03 ANGLE=  12.2 DEGREES
:MIX  :   MSE1   REGULARIZATION:  4.66E-04 GREED: 0.35000  Newton 1.00  0.9468                
     
       CHARGES OF MIXED CHARGE DENSITY
:CTO   : INTERSTITIAL CHARGE =    35.531866
:CPC   : PW Pseudocharge     =   102.718367
:CTO001: CHARGE SPHERE  1    =    79.516690
:CTO002: CHARGE SPHERE  2    =    52.323150
:CTO003: CHARGE SPHERE  3    =    33.759783
:CTO004: CHARGE SPHERE  4    =    33.758706

:NEC03: NUCLEAR AND ELECTRONIC CHARGE    968.00000   968.00000

PW CHANGE     H    K    L      Current       Change    Residue
:PTO001:      0    0    0  2.62979478E-02  5.057E-07  4.786E-07
:PTO006:     -1    0   -1 -2.36710760E-03 -1.153E-07 -1.214E-07
:PTO007:      0    0   -2  2.41469206E-03 -7.613E-07 -9.541E-07
:PTO008:     -1   -1    0  4.58976136E-03 -1.309E-06 -1.689E-06
:PTO009:     -1   -1   -1 -1.04206378E-02 -9.672E-07 -1.027E-06
:PTO012:      0   -2    0  6.72641658E-03  1.252E-06  1.074E-06
:PTO013:     -1   -1   -2  2.09289101E-02  5.665E-06  5.021E-06
:PTO014:     -2    0    0  6.70600230E-03  1.458E-06  1.311E-06
:PTO015:      0   -2   -1  5.68217617E-03  1.212E-06  1.233E-06
:PTO018:     -1   -2    0 -1.03088522E-02  3.999E-07  3.819E-07
:PTO019:     -2   -1    0  1.13184213E-02 -4.487E-07 -4.463E-07
:PTO021:     -1   -2   -1  1.17725729E-02 -6.264E-07 -6.308E-07

:ENE  : ********** TOTAL ENERGY IN Ry =      -292312.84415666

       TOTAL FORCE IN mRy/a.u. = |F|     Fx             Fy             Fz     with/without FOR in case.in2
:FOR001:   1.ATOM          0.000          0.000          0.000          0.000 partial forces
:FOR002:   2.ATOM          0.226         -0.178          0.139          0.000 partial forces
:FOR003:   3.ATOM         25.940         23.601        -10.766          0.000 partial forces
:FOR004:   4.ATOM         35.799        -24.123        -20.053        -17.249 partial forces
       TOTAL FORCE WITH RESPECT TO GLOBAL CARTESIAN COORDINATES:
:FCA001:   1.ATOM                         0.000          0.000          0.000 partial forces
:FCA002:   2.ATOM                        -0.178          0.139          0.000 partial forces
:FCA003:   3.ATOM                        23.601        -10.766          0.000 partial forces
:FCA004:   4.ATOM                       -24.123        -20.053        -17.249 partial forces
       TOTAL FORCE WITH RESPECT TO THE GLOBAL COORDINATE SYSTEM:
:FGL001:   1.ATOM                 0.000000000     0.000000000     0.000000000 partial forces
:FGL002:   2.ATOM                -0.178079164     0.139072783     0.000000000 partial forces
:FGL003:   3.ATOM                23.600806001   -10.765929113     0.000000000 partial forces
:FGL004:   4.ATOM               -24.122503864   -20.053436584   -17.249249922 partial forces
