
:LABEL1: Calculations in /home/cmueller/wien/FZU/src/perovskite/500k
:LABEL2: on cv036 at Thu Jun 20 06:18:37 PM CEST 2024
:LABEL3: using WIEN2k_19.1 (Release 25/6/2019) in /home/cmueller/WIENROOT
:LABEL4: using the command: run_lapw
 Flat Integration
 New Mode for Coulomb Integral
 Consistent 3/8+Simpson combinations
 Extension of core to zero
 LDM version in phi
 Fifth-order quadrature in outwin


            ---------
:ITE001:  1. ITERATION
            ---------

:NATO :    4 INDEPENDENT AND   20 TOTAL ATOMS IN UNITCELL
       SUBSTANCE: blebleble                                                   

       LATTICE                      = P   
:POT  : POTENTIAL OPTION EX_PBE EC_PBE VX_PBE VC_PBE
:LAT  : LATTICE CONSTANTS= 15.19415 15.66734 22.08372    1.571    1.571    1.571
:VOL  : UNIT CELL VOLUME =    5257.07306
       MODE OF CALCULATION IS       = RELA
       NON-SPINPOLARIZED CALCULATION
:IFFT  : FFT-parameters:  120  120  180 Factor: 2.00


   CONVERGENCE PARAMETER FOR PSEUDOCHARGE: NCON=  9
   MAXIMAL VALUE OF RMT(JATOM)*ABSK(NKK) : RK  =29.99804


:VKCOUL :  VK-COUL convergence: 0.423E-07
       ATOMNUMBER=  1 Pb         VCOUL-ZERO =  0.10897E+00
:EFG001:                        EFG         =     0.00590   *10**21  V / m**2
                               V20  TOT/SRF=     0.00113     0.00195
                               V22  TOT/SRF=    -0.00027    -0.00077
                               V22M TOT/SRF=    -0.00029    -0.00093
                               V21  TOT/SRF=     0.00242     0.00330
                               V21M TOT/SRF=    -0.00473    -0.00516

             -0.00092   -0.00029    0.00242       -0.00105    0.00000    0.00000
             -0.00029   -0.00038   -0.00473        0.00000    0.00590    0.00000
              0.00242   -0.00473    0.00130        0.00000    0.00000   -0.00485

         MAIN DIRECTIONS OF THE EFG   1.0000  0.3879 -0.5274
                                      0.5164 -0.7730  1.0000
                                      0.0112  1.0000  0.9776
:ANG001:  ANGLE WITH OLD X-AXIS =        33.2

:ETA001:                         ASYMM. ETA =     0.64411


       ATOMNUMBER=  2 Cs         VCOUL-ZERO = -0.49697E-01
:EFG002:                        EFG         =     0.00079   *10**21  V / m**2
                               V20  TOT/SRF=    -0.00038    -0.00033
                               V22  TOT/SRF=    -0.00031    -0.00059
                               V22M TOT/SRF=    -0.00049    -0.00143
                               V21  TOT/SRF=     0.00000     0.00000
                               V21M TOT/SRF=     0.00000     0.00000

             -0.00009   -0.00049    0.00000       -0.00036    0.00000    0.00000
             -0.00049    0.00053    0.00000        0.00000    0.00079    0.00000
              0.00000    0.00000   -0.00043        0.00000    0.00000   -0.00043

         MAIN DIRECTIONS OF THE EFG   1.0000 -0.5459  0.0000
                                      0.5459  1.0000  0.0000
                                      0.0000  0.0000  1.0000
:ANG002:  ANGLE WITH OLD X-AXIS =        28.6

:ETA002:                         ASYMM. ETA =     0.09356


       ATOMNUMBER=  3 Br         VCOUL-ZERO =  0.28031E+00
:EFG003:                        EFG         =    -0.02231   *10**21  V / m**2
                               V20  TOT/SRF=     0.01925     0.05961
                               V22  TOT/SRF=     0.00410     0.00562
                               V22M TOT/SRF=    -0.01042    -0.01150
                               V21  TOT/SRF=     0.00000     0.00000
                               V21M TOT/SRF=     0.00000     0.00000

             -0.00702   -0.01042    0.00000        0.00008    0.00000    0.00000
             -0.01042   -0.01521    0.00000        0.00000   -0.02231    0.00000
              0.00000    0.00000    0.02223        0.00000    0.00000    0.02223

         MAIN DIRECTIONS OF THE EFG   1.0000  0.6813  0.0000
                                     -0.6813  1.0000  0.0000
                                      0.0000  0.0000  1.0000
:ANG003:  ANGLE WITH OLD X-AXIS =        34.3

:ETA003:                         ASYMM. ETA =     0.99277


       ATOMNUMBER=  4 Br         VCOUL-ZERO =  0.28025E+00
:EFG004:                        EFG         =     0.02212   *10**21  V / m**2
                               V20  TOT/SRF=    -0.00625    -0.02554
                               V22  TOT/SRF=    -0.00319    -0.00440
                               V22M TOT/SRF=    -0.01622    -0.04902
                               V21  TOT/SRF=    -0.00456    -0.00425
                               V21M TOT/SRF=     0.00611     0.00781

              0.00042   -0.01622   -0.00456        0.02212    0.00000    0.00000
             -0.01622    0.00679    0.00611        0.00000   -0.01296    0.00000
             -0.00456    0.00611   -0.00722        0.00000    0.00000   -0.00916

         MAIN DIRECTIONS OF THE EFG  -0.8182  1.0000  0.2387
                                      1.0000  0.8580 -0.1399
                                      0.3353 -0.1186  1.0000
:ANG004:  ANGLE WITH OLD X-AXIS =       128.5

:ETA004:                         ASYMM. ETA =     0.17181


     HELLMANN-FEYNMAN-FORCE IN mRy/a.u. = |F|  Fx       Fy             Fz
:FHF001:   1.ATOM      0.000000000000      0.000000000000      0.000000000000      0.000000000000

     HELLMANN-FEYNMAN-FORCE IN mRy/a.u. = |F|  Fx       Fy             Fz
:FHF002:   2.ATOM     13.212661606233     13.207363767740      0.374124347533      0.000000000000

     HELLMANN-FEYNMAN-FORCE IN mRy/a.u. = |F|  Fx       Fy             Fz
:FHF003:   3.ATOM    220.113963888524    -93.045637347661   -199.480992751907      0.000000000000

     HELLMANN-FEYNMAN-FORCE IN mRy/a.u. = |F|  Fx       Fy             Fz
:FHF004:   4.ATOM    174.202709980683     55.580955909951    107.026757789216    125.708450876934

:FIT001: LUSE= 13 SIGMA OF V-XC FIT FOR ATOM  1  0.7571362E-03
:FIT001: LUSE= 13 SIGMA OF V-XC FIT FOR ATOM  1  0.7571362E-03
:FIT002: LUSE= 13 SIGMA OF V-XC FIT FOR ATOM  2  0.1645418E-04
:FIT002: LUSE= 13 SIGMA OF V-XC FIT FOR ATOM  2  0.1645418E-04
:FIT003: LUSE= 13 SIGMA OF V-XC FIT FOR ATOM  3  0.7450639E-03
:FIT003: LUSE= 13 SIGMA OF V-XC FIT FOR ATOM  3  0.7450639E-03
:FIT004: LUSE= 13 SIGMA OF V-XC FIT FOR ATOM  4  0.6626845E-03
:FIT004: LUSE= 13 SIGMA OF V-XC FIT FOR ATOM  4  0.6626845E-03
:DEN  : DENSITY INTEGRAL  =       -114061.79163689   (Ry)
       ELS_POTENTIAL_AT Z=0 and Z=0.5:  -0.57564  -0.57564
       ELS_POTENTIAL_AT Y=0 and Y=0.5:  -0.47943  -0.47943
:VZERO:v0,v0c,v0x  -1.32226  -0.57564  -0.74662 v5,v5c,v5x  -1.32226  -0.57564  -0.74662
:VZERY:v0,v0c,v0x  -1.13920  -0.47943  -0.65976 v5,v5c,v5x  -1.13920  -0.47943  -0.65976
:VZERX:v0,v0c,v0x  -1.13400  -0.48141  -0.65258 v5,v5c,v5x  -1.13400  -0.48141  -0.65258
:LMAX-WF:   10   Non-Spherical LMAX:   4

          ATOMIC SPHERE DEPENDENT PARAMETERS FOR ATOM  Pb        
:e__0001: OVERALL ENERGY PARAMETER IS    0.3000
          OVERALL BASIS SET ON ATOM IS LAPW
:E2_0001: E( 2)=    0.7000
             APW+lo
:E2_0001: E( 2)=   -0.9369   E(BOTTOM)=   -1.175   E(TOP)=   -0.699  2  3   123
             LOCAL ORBITAL
:E0_0001: E( 0)=    0.3000
             APW+lo
:E1_0001: E( 1)=    0.3000
             APW+lo

          ATOMIC SPHERE DEPENDENT PARAMETERS FOR ATOM  Cs        
:e__0002: OVERALL ENERGY PARAMETER IS    0.3000
          OVERALL BASIS SET ON ATOM IS LAPW
:E2_0002: E( 2)=    0.3000
             APW+lo
:E2_0002: E( 2)=   -4.8572   E(BOTTOM)=   -4.869   E(TOP)=   -4.846  1  2   120
             LOCAL ORBITAL
:E0_0002: E( 0)=    0.7000
             APW+lo
:E0_0002: E( 0)=   -1.3662   E(BOTTOM)=   -2.049   E(TOP)=   -0.683  4  5   169
             LOCAL ORBITAL
:E1_0002: E( 1)=    0.7000
             APW+lo
:E1_0002: E( 1)=   -0.1934   E(BOTTOM)=   -1.166   E(TOP)=    0.779  3  4   199
             LOCAL ORBITAL

          ATOMIC SPHERE DEPENDENT PARAMETERS FOR ATOM  Br        
:e__0003: OVERALL ENERGY PARAMETER IS    0.3000
          OVERALL BASIS SET ON ATOM IS LAPW
:E2_0003: E( 2)=    0.3000
             APW+lo
:E2_0003: E( 2)=   -4.3424   E(BOTTOM)=   -4.346   E(TOP)=   -4.339  1  1   115
             LOCAL ORBITAL
:E0_0003: E( 0)=    0.7000
             APW+lo
:E0_0003: E( 0)=   -0.9471   E(BOTTOM)=   -1.512   E(TOP)=   -0.382  3  4   158
             LOCAL ORBITAL
:E1_0003: E( 1)=    0.3000
             APW+lo

          ATOMIC SPHERE DEPENDENT PARAMETERS FOR ATOM  Br        
:e__0004: OVERALL ENERGY PARAMETER IS    0.3000
          OVERALL BASIS SET ON ATOM IS LAPW
:E2_0004: E( 2)=    0.3000
             APW+lo
:E2_0004: E( 2)=   -4.3426   E(BOTTOM)=   -4.346   E(TOP)=   -4.339  1  1   119
             LOCAL ORBITAL
:E0_0004: E( 0)=    0.7000
             APW+lo
:E0_0004: E( 0)=   -0.9473   E(BOTTOM)=   -1.512   E(TOP)=   -0.382  3  4   153
             LOCAL ORBITAL
:E1_0004: E( 1)=    0.3000
             APW+lo

       K=   0.05556   0.06250   0.08333            1
:RKM  : MATRIX SIZE  2239LOs: 308  RKM= 7.00  WEIGHT= 8.00  PGR:    
       EIGENVALUES ARE:
:EIG00001:      -4.8544127   -4.8544035   -4.8543993   -4.8543918   -4.8543902
:EIG00006:      -4.8543893   -4.8543767   -4.8543726   -4.8543683   -4.8543629
:EIG00011:      -4.8543589   -4.8543539   -4.8543429   -4.8543367   -4.8543232
:EIG00016:      -4.8543134   -4.8543105   -4.8543068   -4.8543028   -4.8542830
:EIG00021:      -4.3422793   -4.3422713   -4.3422699   -4.3422661   -4.3422642
:EIG00026:      -4.3422629   -4.3422584   -4.3422524   -4.3421709   -4.3421698
:EIG00031:      -4.3421632   -4.3421595   -4.3420070   -4.3420024   -4.3419979
:EIG00036:      -4.3419941   -4.3419927   -4.3419909   -4.3419828   -4.3419725
:EIG00041:      -4.3419521   -4.3419422   -4.3419332   -4.3419311   -4.3419283
:EIG00046:      -4.3419249   -4.3419242   -4.3419163   -4.3419140   -4.3419103
 
:EIG00051:      -4.3419058   -4.3419042   -4.3416390   -4.3416350   -4.3416286
:EIG00056:      -4.3416270   -4.3414995   -4.3414979   -4.3414903   -4.3414893
:EIG00061:      -4.3414846   -4.3414798   -4.3414773   -4.3414708   -4.3414577
:EIG00066:      -4.3414500   -4.3414440   -4.3414417   -4.3414396   -4.3414337
:EIG00071:      -4.3414298   -4.3414294   -4.3413184   -4.3413123   -4.3413093
:EIG00076:      -4.3413072   -4.3412446   -4.3412408   -4.3412393   -4.3412311
:EIG00081:      -1.3724500   -1.3722869   -1.3721067   -1.3720030   -0.9680130
:EIG00086:      -0.9678718   -0.9677153   -0.9673992   -0.9673354   -0.9662116
:EIG00091:      -0.9489656   -0.9485395   -0.9484180   -0.9481756   -0.9477021
:EIG00096:      -0.9472695   -0.9032450   -0.9027573   -0.9021220   -0.8964729
 
:EIG00101:      -0.8963020   -0.8962860   -0.8962168   -0.8961115   -0.8960645
:EIG00106:      -0.8957170   -0.8956789   -0.8955419   -0.8954352   -0.8952920
:EIG00111:      -0.8952062   -0.8927418   -0.8812026   -0.8703434   -0.8701023
:EIG00116:      -0.8693756   -0.4145417   -0.4122274   -0.4117512   -0.4104960
:EIG00121:      -0.4096734   -0.4092649   -0.4088150   -0.4078425   -0.4075928
:EIG00126:      -0.4072179   -0.4065159   -0.4061480   -0.4054711   -0.3658140
:EIG00131:      -0.3261513   -0.2660927   -0.1482325   -0.1470029   -0.1423689
:EIG00136:      -0.1401686   -0.1372183   -0.1293524   -0.0983929   -0.0813671
:EIG00141:      -0.0783987   -0.0765739   -0.0752408   -0.0679959   -0.0599647
:EIG00146:      -0.0538588   -0.0512924   -0.0490077   -0.0460701   -0.0438848
 
:EIG00151:      -0.0424577   -0.0406746   -0.0399015   -0.0390928   -0.0324993
:EIG00156:      -0.0277392   -0.0271373   -0.0264161   -0.0253436   -0.0236930
:EIG00161:      -0.0223765   -0.0198944   -0.0185482   -0.0182471    0.0000599
:EIG00166:       0.0558548    0.1033740    0.1562831    0.3405947    0.3446910
:EIG00171:       0.3497928    0.3727880    0.3869923    0.4034144    0.4058149
:EIG00176:       0.4836869    0.4893341    0.4968258    0.5021055    0.5294802
:EIG00181:       0.5314423    0.5363308    0.5441949    0.5479973    0.5492325
:EIG00186:       0.5532202    0.5573896    0.5591626    0.5738930    0.5764558
:EIG00191:       0.5780479    0.5859524    0.5976709    0.6032959    0.6067307
:EIG00196:       0.6117851    0.6138807    0.6194649    0.6220199    0.6310729
 
:EIG00201:       0.6362626    0.6415832    0.6472218    0.6562247    0.6586118
:EIG00206:       0.6763780    0.6864182    0.6923159    0.6999994    0.7039003
:EIG00211:       0.7160771    0.7326078    0.7441463    0.7486063    0.7572785
:EIG00216:       0.7611274    0.7630359    0.7691104    0.7760744    0.7869458
:EIG00221:       0.7890552    0.7933304    0.7972255    0.8322056    0.8496957
:EIG00226:       0.8572368    0.8600275    0.8668385    0.8672468    0.8717056
:EIG00231:       0.8752693    0.8829381    0.8992178    0.9023697    0.9118609
:EIG00236:       0.9241913    0.9355495    0.9441590    0.9499202    0.9567972
:EIG00241:       0.9580490    0.9705044    0.9782878    0.9856466    0.9965336
:EIG00246:       0.9983168    1.0083212    1.0106999    1.0134525    1.0172118
 
:EIG00251:       1.0253494    1.0279539    1.0415984    1.0586395    1.0667853
:EIG00256:       1.0722871    1.0773560    1.0849594    1.0873477    1.0914512
:EIG00261:       1.0949495    1.0982346    1.1017603    1.1064143    1.1104231
:EIG00266:       1.1125994    1.1174564    1.1247727    1.1279597    1.1326324
:EIG00271:       1.1379274    1.1427635    1.1487824    1.1525512    1.1548898
:EIG00276:       1.1604396    1.1652726    1.1686142    1.1698311    1.1707370
:EIG00281:       1.1803300    1.1833154    1.1840143    1.1883892    1.1939061
:EIG00286:       1.1976098    1.2026467    1.2057694    1.2157808    1.2197085
:EIG00291:       1.2269036    1.2295095    1.2335171    1.2373560    1.2406058
:EIG00296:       1.2433081    1.2529526    1.2543797    1.2596429    1.2616759
 
:EIG00301:       1.2729366    1.2784335    1.2830393    1.2847415    1.2901582
:EIG00306:       1.2946098    1.3107871    1.3149354    1.3167463    1.3194765
:EIG00311:       1.3246595    1.3286073    1.3388313    1.3412873    1.3576316
:EIG00316:       1.3633082    1.3673756    1.3721167    1.3768915    1.3816174
:EIG00321:       1.3860593    1.3922964    1.4000186    1.4073916    1.4090399
:EIG00326:       1.4176327    1.4219781    1.4262081    1.4310554    1.4354518
:EIG00331:       1.4387845    1.4431374    1.4516917    1.4556804    1.4643330
:EIG00336:       1.4675054    1.4705231    1.4710558    1.4763483    1.4801627
:EIG00341:       1.4863763    1.4904838    1.4976822    1.4988923    1.5044493
:EIG00346:       1.5096410    1.5148995    1.5214737    1.5221479    1.5260450
 
:EIG00351:       1.5294458    1.5335205    1.5426934    1.5439935    1.5519847
:EIG00356:       1.5631432    1.5639307    1.5764628    1.5834684    1.5857322
:EIG00361:       1.5883658    1.5960480    1.6084986    1.6141837    1.6227122
:EIG00366:       1.6261446    1.6343020    1.6389851    1.6444601    1.6553242
:EIG00371:       1.6582236    1.6605736    1.6640530    1.6744600    1.6747286
:EIG00376:       1.6778485    1.6809071    1.6872057    1.6930326    1.7092378
:EIG00381:       1.7116815    1.7139908    1.7193654    1.7228878    1.7291111
:EIG00386:       1.7305162    1.7365877    1.7408871    1.7467619    1.7480711
:EIG00391:       1.7518263    1.7567758    1.7629165    1.7649730    1.7670212
:EIG00396:       1.7740076    1.7884200    1.7912117    1.7934678    1.7975205
 
:EIG00401:       1.8057391    1.8107940    1.8179944    1.8220440    1.8231372
:EIG00406:       1.8287788    1.8317882    1.8327986    1.8380230    1.8422924
:EIG00411:       1.8455899    1.8491775    1.8592712    1.8643144    1.8774139
:EIG00416:       1.8848773    1.8852997    1.8891412    1.8966345    1.9023189
:EIG00421:       1.9061462    1.9105236    1.9167909    1.9244298    1.9265934
:EIG00426:       1.9318507    1.9340606    1.9375015    1.9445032    1.9480220
:EIG00431:       1.9530331    1.9563344    1.9637820    1.9657031    1.9726266
:EIG00436:       1.9765505    1.9824647    1.9879275    1.9967565
       ********************************************************

:KPT   :      NUMBER OF K-POINTS:    60
       Insulator, EF-inconsistency corrected
:GAP (global)   :  0.184312 Ry =     2.508 eV (accurate value if proper k-mesh)
         Bandranges (emin - emax) and occupancy:
:BAN00158: 158   -0.036216   -0.025683  2.00000000
:BAN00159: 159   -0.033159   -0.024946  2.00000000
:BAN00160: 160   -0.033159   -0.023693  2.00000000
:BAN00161: 161   -0.028794   -0.022377  2.00000000
:BAN00162: 162   -0.028155   -0.019894  2.00000000
:BAN00163: 163   -0.023278   -0.014198  2.00000000
:BAN00164: 164   -0.022528   -0.014198  2.00000000
:BAN00165: 165    0.000060    0.060182  2.00000000
:BAN00166: 166    0.018190    0.068483  2.00000000
:BAN00167: 167    0.048898    0.113653  2.00000000
:BAN00168: 168    0.048918    0.156283  2.00000000
:BAN00169: 169    0.340595    0.429934  0.00000000
:BAN00170: 170    0.344691    0.429934  0.00000000
:BAN00171: 171    0.349793    0.434307  0.00000000
:BAN00172: 172    0.372143    0.445218  0.00000000
:BAN00173: 173    0.382354    0.451451  0.00000000
        Energy to separate low and high energystates:   -0.46454


:NOE  : NUMBER OF ELECTRONS          =  336.000

:FER  : F E R M I - ENERGY(TETRAH.M.)=   0.1562831014
:GMA  : POTENTIAL AND CHARGE CUT-OFF  12.00 Ry**.5

:POS001: ATOM   -1 X,Y,Z = 0.50000 0.50000 0.50000  MULT= 4  ZZ= 82.000  Pb        

       LMMAX 28
       LM=   0 0  2 0  2 1 -2 1  2 2 -2 2  4 0  4 1 -4 1  4 2 -4 2  4 3 -4 3  4 4 -4 4  6 0  6 1
        -6 1  6 2 -6 2  6 3 -6 3  6 4 -6 4  6 5 -6 5  6 6 -6 6

:CHA001: TOTAL VALENCE CHARGE INSIDE SPHERE   1 =  11.3104    (RMT=  2.5000 )
:PCS001: PARTIAL CHARGES SPHERE =  1 S,P,D,F,PX,PY,PZ,D-Z2,D-X2Y2,D-XY,D-XZ,D-YZ 
:QTL001: 1.3301 0.2629 9.7026 0.0124 0.0868 0.0874 0.0887 1.9483 1.9366 1.9470 1.9358 1.9350
        Q-s-low E-s-low   Q-p-low E-p-low   Q-d-low E-d-low   Q-f-low E-f-low
:EPL001:  0.0177 -0.9545    0.0087 -0.9464    9.6271 -0.8978    0.0010 -0.9568
        Q-s-hi  E-s-hi    Q-p-hi  E-p-hi    Q-d-hi  E-d-hi    Q-f-hi  E-f-hi 
:EPH001:  1.3124 -0.2171    0.2542 -0.0907    0.0756 -0.0566    0.0114 -0.0583

                      QXX         QXY         QYY         QZZ       UP TO R
:VZZ001:             0.65384     0.65265     0.16113    -0.81497       2.500

:POS002: ATOM   -2 X,Y,Z = 0.48491 0.94655 0.25000  MULT= 4  ZZ= 55.000  Cs        

       LMMAX 28
       LM=   0 0  1 1 -1 1  2 0  2 2 -2 2  3 1 -3 1  3 3 -3 3  4 0  4 2 -4 2  4 4 -4 4  5 1 -5 1
         5 3 -5 3  5 5 -5 5  6 0  6 2 -6 2  6 4 -6 4  6 6 -6 6

:CHA002: TOTAL VALENCE CHARGE INSIDE SPHERE   2 =  16.2947    (RMT=  2.5000 )
:PCS002: PARTIAL CHARGES SPHERE =  2 S,P,D,F,PX,PY,PZ,D-Z2,D-X2Y2,D-XY,D-XZ,D-YZ 
:QTL002: 1.7960 4.487510.0093 0.0018 1.4951 1.4960 1.4964 2.0014 2.0022 2.0011 2.0019 2.0026
        Q-s-low E-s-low   Q-p-low E-p-low   Q-d-low E-d-low   Q-f-low E-f-low
:EPL002:  1.7865 -1.3718    0.0022 -0.9454    9.9946 -4.8543    0.0001 -1.0165
        Q-s-hi  E-s-hi    Q-p-hi  E-p-hi    Q-d-hi  E-d-hi    Q-f-hi  E-f-hi 
:EPH002:  0.0095 -0.0770    4.4853 -0.3968    0.0147 -0.0520    0.0017 -0.0450

                      QXX         QXY         QYY         QZZ       UP TO R
:VZZ002:             0.54769     1.59479    -0.11908    -0.42861       2.500

:POS003: ATOM   -3 X,Y,Z = 0.56000 0.50750 0.25000  MULT= 4  ZZ= 35.000  Br        

       LMMAX 28
       LM=   0 0  1 1 -1 1  2 0  2 2 -2 2  3 1 -3 1  3 3 -3 3  4 0  4 2 -4 2  4 4 -4 4  5 1 -5 1
         5 3 -5 3  5 5 -5 5  6 0  6 2 -6 2  6 4 -6 4  6 6 -6 6

:CHA003: TOTAL VALENCE CHARGE INSIDE SPHERE   3 =  15.9553    (RMT=  2.5000 )
:PCS003: PARTIAL CHARGES SPHERE =  3 S,P,D,F,PX,PY,PZ,D-Z2,D-X2Y2,D-XY,D-XZ,D-YZ 
:QTL003: 1.7970 4.141310.0141 0.0024 1.3989 1.4027 1.3397 2.0109 2.0004 2.0002 2.0017 2.0009
        Q-s-low E-s-low   Q-p-low E-p-low   Q-d-low E-d-low   Q-f-low E-f-low
:EPL003:  1.7662 -0.9479    0.0063 -0.9020   10.0001 -4.3411    0.0006 -0.9116
        Q-s-hi  E-s-hi    Q-p-hi  E-p-hi    Q-d-hi  E-d-hi    Q-f-hi  E-f-hi 
:EPH003:  0.0308 -0.2384    4.1350 -0.0589    0.0140 -0.1100    0.0018 -0.1584

                      QXX         QXY         QYY         QZZ       UP TO R
:VZZ003:            -5.13943    -0.36330    -6.35683    11.49626       2.500

:POS004: ATOM   -4 X,Y,Z = 0.19962 0.70227 0.46752  MULT= 8  ZZ= 35.000  Br        

       LMMAX 49

:CHA004: TOTAL VALENCE CHARGE INSIDE SPHERE   4 =  15.9560    (RMT=  2.5000 )
:PCS004: PARTIAL CHARGES SPHERE =  4 S,P,D,F,PX,PY,PZ,D-Z2,D-X2Y2,D-XY,D-XZ,D-YZ 
:QTL004: 1.7968 4.142710.0137 0.0024 1.3729 1.3699 1.3999 2.0027 2.0019 2.0073 2.0008 2.0009
        Q-s-low E-s-low   Q-p-low E-p-low   Q-d-low E-d-low   Q-f-low E-f-low
:EPL004:  1.7666 -0.9479    0.0061 -0.9008   10.0000 -4.3413    0.0006 -0.9144
        Q-s-hi  E-s-hi    Q-p-hi  E-p-hi    Q-d-hi  E-d-hi    Q-f-hi  E-f-hi 
:EPH004:  0.0301 -0.2387    4.1366 -0.0590    0.0136 -0.1123    0.0018 -0.1531

                      QXX         QXY         QYY         QZZ       UP TO R
:VZZ004:             2.16552    -8.20703     3.11544    -5.28096       2.500

:CHA  : TOTAL VALENCE CHARGE INSIDE UNIT CELL =     336.000000

:SUM  : SUM OF EIGENVALUES =        -800.985330129


        1.ATOM      Pb                   19 CORE STATES
:1S 001: 1S               -6465.856478861 Ry
:2S 001: 2S               -1154.903306790 Ry
:2PP001: 2P*              -1108.893817011 Ry
:2P 001: 2P                -947.935173972 Ry
:3S 001: 3S                -276.693360124 Ry
:3PP001: 3P*               -255.968010997 Ry
:3P 001: 3P                -220.054280836 Ry
:3DD001: 3D*               -186.062537820 Ry
:3D 001: 3D                -178.422247597 Ry
:4S 001: 4S                 -62.128808944 Ry
:4PP001: 4P*                -53.163996678 Ry
:4P 001: 4P                 -44.373404565 Ry
:4DD001: 4D*                -29.792605091 Ry
:4D 001: 4D                 -28.152442018 Ry
:5S 001: 5S                  -9.904885030 Ry
:5PP001: 5P*                 -6.849845520 Ry
:5P 001: 5P                  -5.208607376 Ry
:4FF001: 4F*                 -9.280070916 Ry
:4F 001: 4F                  -8.910355399 Ry

        2.ATOM      Cs                   12 CORE STATES
       CORE-FORCE in mRy/a.u. = |F|      Fx             Fy             Fz
:FCO002:   2.ATOM      8.842542940986     -8.835064566040     -0.363592872713      0.000000000000

:1S 002: 1S               -2628.589836052 Ry
:2S 002: 2S                -411.663315835 Ry
:2PP002: 2P*               -387.226059542 Ry
:2P 002: 2P                -361.334303543 Ry
:3S 002: 3S                 -85.113558932 Ry
:3PP002: 3P*                -74.910137637 Ry
:3P 002: 3P                 -69.948285401 Ry
:3DD002: 3D*                -52.028973622 Ry
:3D 002: 3D                 -50.975649671 Ry
:4S 002: 4S                 -15.579493186 Ry
:4PP002: 4P*                -11.918652724 Ry
:4P 002: 4P                 -10.906723180 Ry

        3.ATOM      Br                    7 CORE STATES
       CORE-FORCE in mRy/a.u. = |F|      Fx             Fy             Fz
:FCO003:   3.ATOM    113.798211866841     46.855090037281    103.704549377974      0.000000000000

:1S 003: 1S                -977.960077086 Ry
:2S 003: 2S                -126.757186875 Ry
:2PP003: 2P*               -114.087264181 Ry
:2P 003: 2P                -110.595877631 Ry
:3S 003: 3S                 -16.930995736 Ry
:3PP003: 3P*                -12.526450390 Ry
:3P 003: 3P                 -12.024239283 Ry

        4.ATOM      Br                    7 CORE STATES
       CORE-FORCE in mRy/a.u. = |F|      Fx             Fy             Fz
:FCO004:   4.ATOM     88.726814992281    -27.631481055139    -54.539348517191    -64.299365601025

:1S 004: 1S                -977.960247445 Ry
:2S 004: 2S                -126.757357083 Ry
:2PP004: 2P*               -114.087434426 Ry
:2P 004: 2P                -110.596047870 Ry
:3S 004: 3S                 -16.931164448 Ry
:3PP004: 3P*                -12.526618974 Ry
:3P 004: 3P                 -12.024407776 Ry
:CINT001 Core Integral Atom   1   67.995039
:CINT002 Core Integral Atom   2   35.999909
:CINT003 Core Integral Atom   3   17.999989
:CINT004 Core Integral Atom   4   17.999989

       DENSITY AT NUCLEUS
        JATOM        VALENCE       SEMI-CORE          CORE           TOTAL
:RTO001:   1     1927.878626        0.000000  9911349.920423  9913277.799050
:RTO002:   2      320.878678        0.000000   438170.878700   438491.757378
:RTO003:   3       73.645529        0.000000    45839.135817    45912.781346
:RTO004:   4       73.629448        0.000000    45839.135906    45912.765353
     
       CHARGES OF NEW CHARGE DENSITY
:NTO   : INTERSTITIAL CHARGE =    34.110609
:NPC   : PW Pseudocharge     =   103.140239
:NTO001: CHARGE SPHERE  1    =    79.305391
:NTO002: CHARGE SPHERE  2    =    52.294591
:NTO003: CHARGE SPHERE  3    =    33.955308
:NTO004: CHARGE SPHERE  4    =    33.955982

:NEC01: NUCLEAR AND ELECTRONIC CHARGE    968.00000   967.97963
     
       CHARGES OF OLD CHARGE DENSITY
:OTO   : INTERSTITIAL CHARGE =    36.640800
:OPC   : PW Pseudocharge     =   131.400729
:OTO001: CHARGE SPHERE  1    =    79.809567
:OTO002: CHARGE SPHERE  2    =    52.317982
:OTO003: CHARGE SPHERE  3    =    33.573161
:OTO004: CHARGE SPHERE  4    =    33.572536

:NEC02: NUCLEAR AND ELECTRONIC CHARGE    968.00000   968.02393
     
       CONVERGENCE TEST
:DTO001: DIFFERENCE IN SPHERE  1 =  0.2619601
:DTO002: DIFFERENCE IN SPHERE  2 =  0.0742551
:DTO003: DIFFERENCE IN SPHERE  3 =  0.1900921
:DTO004: DIFFERENCE IN SPHERE  4 =  0.1907614

:DIS  :  CHARGE DISTANCE       ( 0.2619601 for atom    1 spin 1)      0.1815660
 PW Mixed is         2247
 
******************************************************
* MULTISECANT MIXING VER9 RELEASE 10.4.0              *
* Standard Mode with controls                        *
* Fixed density scale                                *
* Regularization       1.000E-04                     *
* Trust Upper Limit    5.000E+00                     *
* Max Number of Memory Steps    8                    *
******************************************************
 
:PWTMP   3.9481E+03  2.5000E+03  5.2571E+03
:PLANE:  PW TOTAL     10.8628 DISTAN   3.49E+00  3.21E+01 %
:CHARG:  CLM/ATOM   1115.9684 DISTAN   2.17E-01  1.94E-02 %
 
Step History
        DMIX         DMIXT        Red     Pred      Trust     Lambda    MagRel    MagAbs     Beta
  1   3.5000E-02   3.5000E-02 -1.00E+00  1.00E+00 -1.00E+01  1.00E+00  3.50E-02  3.50E-02  1.00E+00
:INFO :  Note, Pratt in use
:TRUST:  Step 3.75E-02  Charge 7.50E-02 (e) CTO  4.43E-01 (e) PW  6.21E-01 (e)
:DIRM :  MEMORY  0/ 8 SCALE   1.000
Performing Pseudo Compensation
Final Pseudo Compensation Rescaling     1.00017E+00
:MIX  :   PRATT  REGULARIZATION:  1.00E-04 GREED: 0.02500                  
     
       CHARGES OF MIXED CHARGE DENSITY
:CTO   : INTERSTITIAL CHARGE =    36.554719
:CPC   : PW Pseudocharge     =   113.534766
:CTO001: CHARGE SPHERE  1    =    79.796963
:CTO002: CHARGE SPHERE  2    =    52.317397
:CTO003: CHARGE SPHERE  3    =    33.582715
:CTO004: CHARGE SPHERE  4    =    33.582123

:NEC03: NUCLEAR AND ELECTRONIC CHARGE    968.00000   968.00000

PW CHANGE     H    K    L      Current       Change    Residue
:PTO001:      0    0    0  2.85500094E-02 -3.394E-03 -5.821E-03
:PTO006:     -1    0   -1 -2.51627503E-03  2.686E-04  3.935E-04
:PTO007:      0    0   -2  3.53994826E-03 -1.918E-03 -3.357E-03
:PTO008:     -1   -1    0  6.73925715E-03 -3.963E-03 -6.793E-03
:PTO009:     -1   -1   -1 -1.09892211E-02  1.548E-03  2.191E-03
:PTO012:      0   -2    0  8.00608425E-03 -3.040E-03 -4.732E-03
:PTO013:     -1   -1   -2  2.58151751E-02 -1.152E-02 -1.846E-02
:PTO014:     -2    0    0  7.95692177E-03 -3.092E-03 -4.793E-03
:PTO015:      0   -2   -1  6.10838042E-03 -1.114E-03 -1.748E-03
:PTO018:     -1   -2    0 -1.09996976E-02  1.245E-03  1.563E-03
:PTO019:     -2   -1    0  1.21010909E-02 -1.400E-03 -1.765E-03
:PTO021:     -1   -2   -1  1.26267893E-02 -1.485E-03 -1.879E-03

:ENE  : ********** TOTAL ENERGY IN Ry =      -292313.14242549

       TOTAL FORCE IN mRy/a.u. = |F|     Fx             Fy             Fz     with/without FOR in case.in2
:FOR001:   1.ATOM          0.000          0.000          0.000          0.000 partial forces
:FOR002:   2.ATOM          4.372          4.372          0.011          0.000 partial forces
:FOR003:   3.ATOM        106.333        -46.191        -95.776          0.000 partial forces
:FOR004:   4.ATOM         85.482         27.949         52.487         61.409 partial forces
       TOTAL FORCE WITH RESPECT TO GLOBAL CARTESIAN COORDINATES:
:FCA001:   1.ATOM                         0.000          0.000          0.000 partial forces
:FCA002:   2.ATOM                         4.372          0.011          0.000 partial forces
:FCA003:   3.ATOM                       -46.191        -95.776          0.000 partial forces
:FCA004:   4.ATOM                        27.949         52.487         61.409 partial forces
       TOTAL FORCE WITH RESPECT TO THE GLOBAL COORDINATE SYSTEM:
:FGL001:   1.ATOM                 0.000000000     0.000000000     0.000000000 partial forces
:FGL002:   2.ATOM                 4.372299202     0.010531475     0.000000000 partial forces
:FGL003:   3.ATOM               -46.190547310   -95.776443374     0.000000000 partial forces
:FGL004:   4.ATOM                27.949474855    52.487409272    61.409085276 partial forces
 Flat Integration
 New Mode for Coulomb Integral
 Consistent 3/8+Simpson combinations
 Extension of core to zero
 LDM version in phi
 Fifth-order quadrature in outwin


            ---------
:ITE002:  2. ITERATION
            ---------

:NATO :    4 INDEPENDENT AND   20 TOTAL ATOMS IN UNITCELL
       SUBSTANCE: blebleble                                                   

       LATTICE                      = P   
:POT  : POTENTIAL OPTION EX_PBE EC_PBE VX_PBE VC_PBE
:LAT  : LATTICE CONSTANTS= 15.19415 15.66734 22.08372    1.571    1.571    1.571
:VOL  : UNIT CELL VOLUME =    5257.07306
       MODE OF CALCULATION IS       = RELA
       NON-SPINPOLARIZED CALCULATION
:IFFT  : FFT-parameters:  120  120  180 Factor: 2.00


   CONVERGENCE PARAMETER FOR PSEUDOCHARGE: NCON=  9
   MAXIMAL VALUE OF RMT(JATOM)*ABSK(NKK) : RK  =29.99804


:VKCOUL :  VK-COUL convergence: 0.236E-08
       ATOMNUMBER=  1 Pb         VCOUL-ZERO =  0.95795E-01
:EFG001:                        EFG         =     0.02830   *10**21  V / m**2
                               V20  TOT/SRF=    -0.01648     0.00190
                               V22  TOT/SRF=     0.00589    -0.00073
                               V22M TOT/SRF=     0.01603    -0.00085
                               V21  TOT/SRF=    -0.00655     0.00319
                               V21M TOT/SRF=    -0.00633    -0.00511

              0.01540    0.01603   -0.00655        0.02830    0.00000    0.00000
              0.01603    0.00362   -0.00633        0.00000   -0.00742    0.00000
             -0.00655   -0.00633   -0.01903        0.00000    0.00000   -0.02089

         MAIN DIRECTIONS OF THE EFG   1.0000 -0.7393  0.0935
                                      0.7094  1.0000  0.1972
                                     -0.2334 -0.1281  1.0000
:ANG001:  ANGLE WITH OLD X-AXIS =        36.7

:ETA001:                         ASYMM. ETA =     0.47583


       ATOMNUMBER=  2 Cs         VCOUL-ZERO = -0.57642E-01
:EFG002:                        EFG         =     0.04607   *10**21  V / m**2
                               V20  TOT/SRF=    -0.00974    -0.00043
                               V22  TOT/SRF=     0.00807    -0.00052
                               V22M TOT/SRF=     0.03964    -0.00110
                               V21  TOT/SRF=     0.00000     0.00000
                               V21M TOT/SRF=     0.00000     0.00000

              0.01369    0.03964    0.00000        0.04607    0.00000    0.00000
              0.03964   -0.00244    0.00000        0.00000   -0.03482    0.00000
              0.00000    0.00000   -0.01125        0.00000    0.00000   -0.01125

         MAIN DIRECTIONS OF THE EFG   1.0000 -0.8170  0.0000
                                      0.8170  1.0000  0.0000
                                      0.0000  0.0000  1.0000
:ANG002:  ANGLE WITH OLD X-AXIS =        39.2

:ETA002:                         ASYMM. ETA =     0.51162


       ATOMNUMBER=  3 Br         VCOUL-ZERO =  0.27407E+00
:EFG003:                        EFG         =     0.31479   *10**21  V / m**2
                               V20  TOT/SRF=     0.27262     0.06293
                               V22  TOT/SRF=     0.01944     0.00570
                               V22M TOT/SRF=    -0.01946    -0.01138
                               V21  TOT/SRF=     0.00000     0.00000
                               V21M TOT/SRF=     0.00000     0.00000

             -0.13795   -0.01946    0.00000       -0.12988    0.00000    0.00000
             -0.01946   -0.17684    0.00000        0.00000   -0.18491    0.00000
              0.00000    0.00000    0.31479        0.00000    0.00000    0.31479

         MAIN DIRECTIONS OF THE EFG   1.0000  0.4145  0.0000
                                     -0.4145  1.0000  0.0000
                                      0.0000  0.0000  1.0000
:ANG003:  ANGLE WITH OLD X-AXIS =        22.5

:ETA003:                         ASYMM. ETA =     0.17479


       ATOMNUMBER=  4 Br         VCOUL-ZERO =  0.27410E+00
:EFG004:                        EFG         =     0.29764   *10**21  V / m**2
                               V20  TOT/SRF=    -0.12276    -0.02716
                               V22  TOT/SRF=    -0.01519    -0.00448
                               V22M TOT/SRF=    -0.22509    -0.05178
                               V21  TOT/SRF=    -0.02584    -0.00411
                               V21M TOT/SRF=     0.00676     0.00786

              0.05569   -0.22509   -0.02584        0.29764    0.00000    0.00000
             -0.22509    0.08606    0.00676        0.00000   -0.16424    0.00000
             -0.02584    0.00676   -0.14175        0.00000    0.00000   -0.13340

         MAIN DIRECTIONS OF THE EFG  -0.9379  1.0000 -0.4524
                                      1.0000  0.8754 -0.4949
                                      0.0705  0.8856  1.0000
:ANG004:  ANGLE WITH OLD X-AXIS =       130.5

:ETA004:                         ASYMM. ETA =     0.10360


     HELLMANN-FEYNMAN-FORCE IN mRy/a.u. = |F|  Fx       Fy             Fz
:FHF001:   1.ATOM      0.000000000000      0.000000000000      0.000000000000      0.000000000000

     HELLMANN-FEYNMAN-FORCE IN mRy/a.u. = |F|  Fx       Fy             Fz
:FHF002:   2.ATOM     12.754814989399     12.649198034882      1.638015411454      0.000000000000

     HELLMANN-FEYNMAN-FORCE IN mRy/a.u. = |F|  Fx       Fy             Fz
:FHF003:   3.ATOM    205.778121431722    -81.091388240418   -189.126470947909      0.000000000000

     HELLMANN-FEYNMAN-FORCE IN mRy/a.u. = |F|  Fx       Fy             Fz
:FHF004:   4.ATOM    153.703167600730     45.232421424709     94.333926859573    112.604627017759

:FIT001: LUSE= 13 SIGMA OF V-XC FIT FOR ATOM  1  0.7699694E-03
:FIT001: LUSE= 13 SIGMA OF V-XC FIT FOR ATOM  1  0.7699694E-03
:FIT002: LUSE= 13 SIGMA OF V-XC FIT FOR ATOM  2  0.1706824E-04
:FIT002: LUSE= 13 SIGMA OF V-XC FIT FOR ATOM  2  0.1706824E-04
:FIT003: LUSE= 13 SIGMA OF V-XC FIT FOR ATOM  3  0.7195879E-03
:FIT003: LUSE= 13 SIGMA OF V-XC FIT FOR ATOM  3  0.7195879E-03
:FIT004: LUSE= 13 SIGMA OF V-XC FIT FOR ATOM  4  0.6397585E-03
:FIT004: LUSE= 13 SIGMA OF V-XC FIT FOR ATOM  4  0.6397585E-03
:DEN  : DENSITY INTEGRAL  =       -114052.97222345   (Ry)
       ELS_POTENTIAL_AT Z=0 and Z=0.5:  -0.54399  -0.54399
       ELS_POTENTIAL_AT Y=0 and Y=0.5:  -0.45460  -0.45460
:VZERO:v0,v0c,v0x  -1.26510  -0.54399  -0.72112 v5,v5c,v5x  -1.26510  -0.54399  -0.72112
:VZERY:v0,v0c,v0x  -1.09370  -0.45460  -0.63911 v5,v5c,v5x  -1.09370  -0.45460  -0.63911
:VZERX:v0,v0c,v0x  -1.08666  -0.45418  -0.63248 v5,v5c,v5x  -1.08666  -0.45418  -0.63248
:LMAX-WF:   10   Non-Spherical LMAX:   4

          ATOMIC SPHERE DEPENDENT PARAMETERS FOR ATOM  Pb        
:e__0001: OVERALL ENERGY PARAMETER IS    0.1000
          OVERALL BASIS SET ON ATOM IS LAPW
:E2_0001: E( 2)=    0.5000
             APW+lo
:E2_0001: E( 2)=   -0.9530   E(BOTTOM)=   -1.190   E(TOP)=   -0.716  2  3   124
             LOCAL ORBITAL
:E0_0001: E( 0)=    0.1000
             APW+lo
:E1_0001: E( 1)=    0.1000
             APW+lo

          ATOMIC SPHERE DEPENDENT PARAMETERS FOR ATOM  Cs        
:e__0002: OVERALL ENERGY PARAMETER IS    0.1000
          OVERALL BASIS SET ON ATOM IS LAPW
:E2_0002: E( 2)=    0.1000
             APW+lo
:E2_0002: E( 2)=   -4.8658   E(BOTTOM)=   -4.877   E(TOP)=   -4.854  1  2   117
             LOCAL ORBITAL
:E0_0002: E( 0)=    0.5000
             APW+lo
:E0_0002: E( 0)=   -1.3744   E(BOTTOM)=   -2.057   E(TOP)=   -0.692  4  5   169
             LOCAL ORBITAL
:E1_0002: E( 1)=    0.5000
             APW+lo
:E1_0002: E( 1)=   -0.2016   E(BOTTOM)=   -1.174   E(TOP)=    0.771  3  4   197
             LOCAL ORBITAL

          ATOMIC SPHERE DEPENDENT PARAMETERS FOR ATOM  Br        
:e__0003: OVERALL ENERGY PARAMETER IS    0.1000
          OVERALL BASIS SET ON ATOM IS LAPW
:E2_0003: E( 2)=    0.1000
             APW+lo
:E2_0003: E( 2)=   -4.3446   E(BOTTOM)=   -4.348   E(TOP)=   -4.341  1  1   120
             LOCAL ORBITAL
:E0_0003: E( 0)=    0.5000
             APW+lo
:E0_0003: E( 0)=   -0.9512   E(BOTTOM)=   -1.517   E(TOP)=   -0.386  3  4   155
             LOCAL ORBITAL
:E1_0003: E( 1)=    0.1000
             APW+lo

          ATOMIC SPHERE DEPENDENT PARAMETERS FOR ATOM  Br        
:e__0004: OVERALL ENERGY PARAMETER IS    0.1000
          OVERALL BASIS SET ON ATOM IS LAPW
:E2_0004: E( 2)=    0.1000
             APW+lo
:E2_0004: E( 2)=   -4.3446   E(BOTTOM)=   -4.348   E(TOP)=   -4.341  1  1   124
             LOCAL ORBITAL
:E0_0004: E( 0)=    0.5000
             APW+lo
:E0_0004: E( 0)=   -0.9513   E(BOTTOM)=   -1.517   E(TOP)=   -0.386  3  4   155
             LOCAL ORBITAL
:E1_0004: E( 1)=    0.1000
             APW+lo

       K=   0.05556   0.06250   0.08333            1
:RKM  : MATRIX SIZE  2239LOs: 308  RKM= 7.00  WEIGHT= 8.00  PGR:    
       EIGENVALUES ARE:
:EIG00001:      -4.8629770   -4.8629750   -4.8629677   -4.8629592   -4.8629567
:EIG00006:      -4.8629522   -4.8629420   -4.8629372   -4.8629353   -4.8629337
:EIG00011:      -4.8629305   -4.8629240   -4.8629204   -4.8629087   -4.8629001
:EIG00016:      -4.8628894   -4.8628834   -4.8628819   -4.8628741   -4.8628522
:EIG00021:      -4.3444352   -4.3444303   -4.3444276   -4.3444244   -4.3444239
:EIG00026:      -4.3444213   -4.3444189   -4.3444162   -4.3444152   -4.3444127
:EIG00031:      -4.3444090   -4.3444040   -4.3441508   -4.3441377   -4.3441351
:EIG00036:      -4.3441344   -4.3441103   -4.3441014   -4.3440998   -4.3440964
:EIG00041:      -4.3440955   -4.3440933   -4.3440857   -4.3440748   -4.3440498
:EIG00046:      -4.3440445   -4.3440323   -4.3440280   -4.3440205   -4.3440170
 
:EIG00051:      -4.3440117   -4.3440106   -4.3438568   -4.3438521   -4.3438467
:EIG00056:      -4.3438445   -4.3434768   -4.3434757   -4.3434673   -4.3434665
:EIG00061:      -4.3434616   -4.3434567   -4.3434543   -4.3434484   -4.3434356
:EIG00066:      -4.3434260   -4.3434206   -4.3434181   -4.3434157   -4.3434104
:EIG00071:      -4.3434072   -4.3434053   -4.3433915   -4.3433855   -4.3433826
:EIG00076:      -4.3433803   -4.3433246   -4.3433209   -4.3433197   -4.3433112
:EIG00081:      -1.3805853   -1.3804250   -1.3802463   -1.3801436   -0.9760027
:EIG00086:      -0.9757147   -0.9755970   -0.9746605   -0.9734571   -0.9707916
:EIG00091:      -0.9533788   -0.9529814   -0.9529215   -0.9525393   -0.9519077
:EIG00096:      -0.9514500   -0.9192744   -0.9186695   -0.9178960   -0.9127567
 
:EIG00101:      -0.9125883   -0.9125700   -0.9125038   -0.9123944   -0.9123497
:EIG00106:      -0.9120023   -0.9119635   -0.9118427   -0.9117349   -0.9115878
:EIG00111:      -0.9114999   -0.9072109   -0.8944743   -0.8826663   -0.8824701
:EIG00116:      -0.8817315   -0.4224169   -0.4202759   -0.4200729   -0.4195080
:EIG00121:      -0.4178248   -0.4174469   -0.4172257   -0.4157656   -0.4155950
:EIG00126:      -0.4154670   -0.4150123   -0.4142310   -0.4133729   -0.3775713
:EIG00131:      -0.3382486   -0.2790503   -0.1548853   -0.1537595   -0.1491781
:EIG00136:      -0.1468695   -0.1438719   -0.1362476   -0.1033845   -0.0864464
:EIG00141:      -0.0834158   -0.0816026   -0.0802997   -0.0730589   -0.0650040
:EIG00146:      -0.0585660   -0.0560545   -0.0537170   -0.0509111   -0.0486857
 
:EIG00151:      -0.0472040   -0.0453347   -0.0446636   -0.0439644   -0.0373847
:EIG00156:      -0.0330068   -0.0326001   -0.0318581   -0.0301556   -0.0284389
:EIG00161:      -0.0271100   -0.0243844   -0.0231312   -0.0227126   -0.0049094
:EIG00166:       0.0484544    0.0954754    0.1478652    0.3301800    0.3342104
:EIG00171:       0.3395300    0.3622886    0.3764331    0.3930021    0.3988009
:EIG00176:       0.4769652    0.4827414    0.4896628    0.4952497    0.5208427
:EIG00181:       0.5240027    0.5289940    0.5358674    0.5405114    0.5409957
:EIG00186:       0.5459236    0.5503996    0.5519299    0.5657302    0.5694205
:EIG00191:       0.5703792    0.5791307    0.5896716    0.5944357    0.5986308
:EIG00196:       0.6032096    0.6053488    0.6112177    0.6141999    0.6241224
 
:EIG00201:       0.6286849    0.6336825    0.6399085    0.6488148    0.6512996
:EIG00206:       0.6693518    0.6793355    0.6854405    0.6927365    0.6969390
:EIG00211:       0.7091377    0.7256346    0.7372229    0.7418988    0.7504927
:EIG00216:       0.7542712    0.7563343    0.7624107    0.7693626    0.7801960
:EIG00221:       0.7825739    0.7866868    0.7904712    0.8251814    0.8431301
:EIG00226:       0.8503542    0.8529231    0.8602180    0.8604977    0.8650568
:EIG00231:       0.8683974    0.8762721    0.8920003    0.8955932    0.9054195
:EIG00236:       0.9176865    0.9287035    0.9374315    0.9433656    0.9502743
:EIG00241:       0.9515370    0.9637300    0.9721371    0.9785830    0.9898684
:EIG00246:       0.9914697    1.0012713    1.0041838    1.0074814    1.0113289
 
:EIG00251:       1.0187497    1.0211992    1.0354247    1.0523799    1.0609150
:EIG00256:       1.0666022    1.0718158    1.0793196    1.0819460    1.0859185
:EIG00261:       1.0895737    1.0932607    1.0970226    1.1017351    1.1054891
:EIG00266:       1.1075126    1.1127703    1.1193852    1.1226241    1.1274786
:EIG00271:       1.1327854    1.1374053    1.1443631    1.1475313    1.1501872
:EIG00276:       1.1554914    1.1600961    1.1631926    1.1648039    1.1660685
:EIG00281:       1.1756258    1.1791324    1.1793785    1.1839257    1.1895181
:EIG00286:       1.1926792    1.1978104    1.2008607    1.2128920    1.2157076
:EIG00291:       1.2229213    1.2267507    1.2301399    1.2339878    1.2372801
:EIG00296:       1.2396312    1.2496908    1.2503212    1.2563668    1.2588413
 
:EIG00301:       1.2686717    1.2738984    1.2802110    1.2811405    1.2861067
:EIG00306:       1.2915972    1.3070437    1.3122607    1.3143905    1.3162102
:EIG00311:       1.3211817    1.3304224    1.3363751    1.3381378    1.3532463
:EIG00316:       1.3630136    1.3657941    1.3697845    1.3741277    1.3828546
:EIG00321:       1.3862291    1.3893177    1.3998053    1.4078662    1.4096028
:EIG00326:       1.4188207    1.4236517    1.4270976    1.4310300    1.4362412
:EIG00331:       1.4389146    1.4408959    1.4490941    1.4556145    1.4621035
:EIG00336:       1.4672667    1.4702190    1.4703091    1.4778664    1.4814081
:EIG00341:       1.4863575    1.4922684    1.4991503    1.5017855    1.5051294
:EIG00346:       1.5118281    1.5168267    1.5218608    1.5220540    1.5259817
 
:EIG00351:       1.5292643    1.5365869    1.5447224    1.5459870    1.5490342
:EIG00356:       1.5593208    1.5645605    1.5742900    1.5801825    1.5832233
:EIG00361:       1.5851801    1.5950129    1.6080926    1.6130870    1.6220785
:EIG00366:       1.6262050    1.6368478    1.6378937    1.6436700    1.6534839
:EIG00371:       1.6553872    1.6597712    1.6626722    1.6722956    1.6748626
:EIG00376:       1.6772107    1.6801954    1.6834325    1.6895260    1.7081644
:EIG00381:       1.7087912    1.7108569    1.7178239    1.7216743    1.7253612
:EIG00386:       1.7290411    1.7354246    1.7369236    1.7451004    1.7462650
:EIG00391:       1.7510318    1.7552790    1.7619998    1.7651033    1.7659000
:EIG00396:       1.7742183    1.7879787    1.7890908    1.7932678    1.7970883
 
       ********************************************************

:KPT   :      NUMBER OF K-POINTS:    60
       Insulator, EF-inconsistency corrected
:GAP (global)   :  0.182315 Ry =     2.481 eV (accurate value if proper k-mesh)
         Bandranges (emin - emax) and occupancy:
:BAN00158: 158   -0.040913   -0.030378  2.00000000
:BAN00159: 159   -0.037957   -0.029721  2.00000000
:BAN00160: 160   -0.037957   -0.028439  2.00000000
:BAN00161: 161   -0.033476   -0.027110  2.00000000
:BAN00162: 162   -0.033337   -0.024384  2.00000000
:BAN00163: 163   -0.028006   -0.018736  2.00000000
:BAN00164: 164   -0.027315   -0.018736  2.00000000
:BAN00165: 165   -0.004909    0.052600  2.00000000
:BAN00166: 166    0.011616    0.060763  2.00000000
:BAN00167: 167    0.040794    0.105497  2.00000000
:BAN00168: 168    0.040794    0.147865  2.00000000
:BAN00169: 169    0.330180    0.420832  0.00000000
:BAN00170: 170    0.334210    0.420832  0.00000000
:BAN00171: 171    0.339530    0.425226  0.00000000
:BAN00172: 172    0.361756    0.435810  0.00000000
:BAN00173: 173    0.371808    0.442671  0.00000000
        Energy to separate low and high energystates:   -0.47242


:NOE  : NUMBER OF ELECTRONS          =  336.000

:FER  : F E R M I - ENERGY(TETRAH.M.)=   0.1478651568
:GMA  : POTENTIAL AND CHARGE CUT-OFF  12.00 Ry**.5

:POS001: ATOM   -1 X,Y,Z = 0.50000 0.50000 0.50000  MULT= 4  ZZ= 82.000  Pb        

       LMMAX 28
       LM=   0 0  2 0  2 1 -2 1  2 2 -2 2  4 0  4 1 -4 1  4 2 -4 2  4 3 -4 3  4 4 -4 4  6 0  6 1
        -6 1  6 2 -6 2  6 3 -6 3  6 4 -6 4  6 5 -6 5  6 6 -6 6

:CHA001: TOTAL VALENCE CHARGE INSIDE SPHERE   1 =  11.3206    (RMT=  2.5000 )
:PCS001: PARTIAL CHARGES SPHERE =  1 S,P,D,F,PX,PY,PZ,D-Z2,D-X2Y2,D-XY,D-XZ,D-YZ 
:QTL001: 1.3321 0.2694 9.7043 0.0125 0.0890 0.0896 0.0908 1.9487 1.9369 1.9473 1.9361 1.9353
        Q-s-low E-s-low   Q-p-low E-p-low   Q-d-low E-d-low   Q-f-low E-f-low
:EPL001:  0.0183 -0.9591    0.0089 -0.9507    9.6292 -0.9141    0.0010 -0.9607
        Q-s-hi  E-s-hi    Q-p-hi  E-p-hi    Q-d-hi  E-d-hi    Q-f-hi  E-f-hi 
:EPH001:  1.3137 -0.2311    0.2606 -0.0974    0.0750 -0.0621    0.0115 -0.0638

                      QXX         QXY         QYY         QZZ       UP TO R
:VZZ001:             0.65291     0.66614     0.14509    -0.79800       2.500

:POS002: ATOM   -2 X,Y,Z = 0.48491 0.94655 0.25000  MULT= 4  ZZ= 55.000  Cs        

       LMMAX 28
       LM=   0 0  1 1 -1 1  2 0  2 2 -2 2  3 1 -3 1  3 3 -3 3  4 0  4 2 -4 2  4 4 -4 4  5 1 -5 1
         5 3 -5 3  5 5 -5 5  6 0  6 2 -6 2  6 4 -6 4  6 6 -6 6

:CHA002: TOTAL VALENCE CHARGE INSIDE SPHERE   2 =  16.2966    (RMT=  2.5000 )
:PCS002: PARTIAL CHARGES SPHERE =  2 S,P,D,F,PX,PY,PZ,D-Z2,D-X2Y2,D-XY,D-XZ,D-YZ 
:QTL002: 1.7962 4.489010.0095 0.0018 1.4956 1.4965 1.4969 2.0014 2.0023 2.0011 2.0020 2.0027
        Q-s-low E-s-low   Q-p-low E-p-low   Q-d-low E-d-low   Q-f-low E-f-low
:EPL002:  1.7866 -1.3800    0.0022 -0.9500    9.9946 -4.8629    0.0001 -1.0261
        Q-s-hi  E-s-hi    Q-p-hi  E-p-hi    Q-d-hi  E-d-hi    Q-f-hi  E-f-hi 
:EPH002:  0.0095 -0.0819    4.4868 -0.4047    0.0149 -0.0568    0.0017 -0.0498

                      QXX         QXY         QYY         QZZ       UP TO R
:VZZ002:             0.55828     1.61949    -0.11719    -0.44108       2.500

:POS003: ATOM   -3 X,Y,Z = 0.56000 0.50750 0.25000  MULT= 4  ZZ= 35.000  Br        

       LMMAX 28
       LM=   0 0  1 1 -1 1  2 0  2 2 -2 2  3 1 -3 1  3 3 -3 3  4 0  4 2 -4 2  4 4 -4 4  5 1 -5 1
         5 3 -5 3  5 5 -5 5  6 0  6 2 -6 2  6 4 -6 4  6 6 -6 6

:CHA003: TOTAL VALENCE CHARGE INSIDE SPHERE   3 =  15.9441    (RMT=  2.5000 )
:PCS003: PARTIAL CHARGES SPHERE =  3 S,P,D,F,PX,PY,PZ,D-Z2,D-X2Y2,D-XY,D-XZ,D-YZ 
:QTL003: 1.7964 4.130610.0140 0.0024 1.3961 1.4001 1.3343 2.0109 2.0004 2.0002 2.0017 2.0010
        Q-s-low E-s-low   Q-p-low E-p-low   Q-d-low E-d-low   Q-f-low E-f-low
:EPL003:  1.7651 -0.9522    0.0061 -0.9174   10.0001 -4.3433    0.0006 -0.9275
        Q-s-hi  E-s-hi    Q-p-hi  E-p-hi    Q-d-hi  E-d-hi    Q-f-hi  E-f-hi 
:EPH003:  0.0314 -0.2503    4.1245 -0.0641    0.0140 -0.1199    0.0018 -0.1691

                      QXX         QXY         QYY         QZZ       UP TO R
:VZZ003:            -5.38737    -0.35067    -6.62733    12.01470       2.500

:POS004: ATOM   -4 X,Y,Z = 0.19962 0.70227 0.46752  MULT= 8  ZZ= 35.000  Br        

       LMMAX 49

:CHA004: TOTAL VALENCE CHARGE INSIDE SPHERE   4 =  15.9447    (RMT=  2.5000 )
:PCS004: PARTIAL CHARGES SPHERE =  4 S,P,D,F,PX,PY,PZ,D-Z2,D-X2Y2,D-XY,D-XZ,D-YZ 
:QTL004: 1.7962 4.132010.0136 0.0024 1.3690 1.3658 1.3972 2.0027 2.0019 2.0073 2.0008 2.0009
        Q-s-low E-s-low   Q-p-low E-p-low   Q-d-low E-d-low   Q-f-low E-f-low
:EPL004:  1.7656 -0.9521    0.0059 -0.9164   10.0000 -4.3433    0.0006 -0.9302
        Q-s-hi  E-s-hi    Q-p-hi  E-p-hi    Q-d-hi  E-d-hi    Q-f-hi  E-f-hi 
:EPH004:  0.0307 -0.2507    4.1261 -0.0641    0.0136 -0.1223    0.0018 -0.1637

                      QXX         QXY         QYY         QZZ       UP TO R
:VZZ004:             2.28118    -8.57920     3.25782    -5.53899       2.500

:CHA  : TOTAL VALENCE CHARGE INSIDE UNIT CELL =     336.000000

:SUM  : SUM OF EIGENVALUES =        -803.078387825


        1.ATOM      Pb                   19 CORE STATES
:1S 001: 1S               -6465.876382736 Ry
:2S 001: 2S               -1154.922730524 Ry
:2PP001: 2P*              -1108.913343027 Ry
:2P 001: 2P                -947.954624051 Ry
:3S 001: 3S                -276.712200982 Ry
:3PP001: 3P*               -255.986894744 Ry
:3P 001: 3P                -220.073099314 Ry
:3DD001: 3D*               -186.081443517 Ry
:3D 001: 3D                -178.441131008 Ry
:4S 001: 4S                 -62.147037418 Ry
:4PP001: 4P*                -53.182224818 Ry
:4P 001: 4P                 -44.391551685 Ry
:4DD001: 4D*                -29.810740752 Ry
:4D 001: 4D                 -28.170551264 Ry
:5S 001: 5S                  -9.922080811 Ry
:5PP001: 5P*                 -6.866922549 Ry
:5P 001: 5P                  -5.225492321 Ry
:4FF001: 4F*                 -9.298132609 Ry
:4F 001: 4F                  -8.928402404 Ry

        2.ATOM      Cs                   12 CORE STATES
       CORE-FORCE in mRy/a.u. = |F|      Fx             Fy             Fz
:FCO002:   2.ATOM      8.560360000952     -8.479252482301     -1.175602265769      0.000000000000

:1S 002: 1S               -2628.599776047 Ry
:2S 002: 2S                -411.672872471 Ry
:2PP002: 2P*               -387.235690949 Ry
:2P 002: 2P                -361.343910072 Ry
:3S 002: 3S                 -85.122613419 Ry
:3PP002: 3P*                -74.919214160 Ry
:3P 002: 3P                 -69.957341008 Ry
:3DD002: 3D*                -52.038081471 Ry
:3D 002: 3D                 -50.984749788 Ry
:4S 002: 4S                 -15.588141599 Ry
:4PP002: 4P*                -11.927287225 Ry
:4P 002: 4P                 -10.915340601 Ry

        3.ATOM      Br                    7 CORE STATES
       CORE-FORCE in mRy/a.u. = |F|      Fx             Fy             Fz
:FCO003:   3.ATOM    106.292145805450     40.453365849239     98.293160755948      0.000000000000

:1S 003: 1S                -977.961574080 Ry
:2S 003: 2S                -126.758940602 Ry
:2PP003: 2P*               -114.088983833 Ry
:2P 003: 2P                -110.597602460 Ry
:3S 003: 3S                 -16.933100890 Ry
:3PP003: 3P*                -12.528562395 Ry
:3P 003: 3P                 -12.026362946 Ry

        4.ATOM      Br                    7 CORE STATES
       CORE-FORCE in mRy/a.u. = |F|      Fx             Fy             Fz
:FCO004:   4.ATOM     77.824113968430    -22.095958919033    -47.764296461359    -57.331782616373

:1S 004: 1S                -977.961632738 Ry
:2S 004: 2S                -126.759000720 Ry
:2PP004: 2P*               -114.089043732 Ry
:2P 004: 2P                -110.597662391 Ry
:3S 004: 3S                 -16.933161767 Ry
:3PP004: 3P*                -12.528623166 Ry
:3P 004: 3P                 -12.026423685 Ry
:CINT001 Core Integral Atom   1   67.995052
:CINT002 Core Integral Atom   2   35.999909
:CINT003 Core Integral Atom   3   17.999989
:CINT004 Core Integral Atom   4   17.999989

       DENSITY AT NUCLEUS
        JATOM        VALENCE       SEMI-CORE          CORE           TOTAL
:RTO001:   1     1947.809776        0.000000  9911352.888482  9913300.698257
:RTO002:   2      320.955212        0.000000   438170.993758   438491.948970
:RTO003:   3       73.572109        0.000000    45839.118217    45912.690326
:RTO004:   4       73.557918        0.000000    45839.118205    45912.676122
     
       CHARGES OF NEW CHARGE DENSITY
:NTO   : INTERSTITIAL CHARGE =    34.197289
:NPC   : PW Pseudocharge     =   103.261240
:NTO001: CHARGE SPHERE  1    =    79.315619
:NTO002: CHARGE SPHERE  2    =    52.296476
:NTO003: CHARGE SPHERE  3    =    33.944055
:NTO004: CHARGE SPHERE  4    =    33.944724

:NEC01: NUCLEAR AND ELECTRONIC CHARGE    968.00000   967.97968
     
       CHARGES OF OLD CHARGE DENSITY
:OTO   : INTERSTITIAL CHARGE =    36.554733
:OPC   : PW Pseudocharge     =   113.534752
:OTO001: CHARGE SPHERE  1    =    79.796963
:OTO002: CHARGE SPHERE  2    =    52.317397
:OTO003: CHARGE SPHERE  3    =    33.582715
:OTO004: CHARGE SPHERE  4    =    33.582123

:NEC02: NUCLEAR AND ELECTRONIC CHARGE    968.00000   968.00001
     
       CONVERGENCE TEST
:DTO001: DIFFERENCE IN SPHERE  1 =  0.2490747
:DTO002: DIFFERENCE IN SPHERE  2 =  0.0705882
:DTO003: DIFFERENCE IN SPHERE  3 =  0.1824028
:DTO004: DIFFERENCE IN SPHERE  4 =  0.1830887

:DIS  :  CHARGE DISTANCE       ( 0.2490747 for atom    1 spin 1)      0.1736486
 PW Mixed is         2247
 
******************************************************
* MULTISECANT MIXING VER9 RELEASE 10.4.0              *
* Slow Mode, cautious                                *
* Fixed density scale                                *
* Regularization       1.000E-04                     *
* Step Trust Radius    0.75000                       *
* Trust Upper Limit    2.000E+00                     *
* Max Number of Memory Steps   12                    *
******************************************************
 
:PWTMP   3.9481E+03  2.5000E+03  5.2571E+03
:PLANE:  PW TOTAL      8.9286 DISTAN   1.03E+00  1.16E+01 %
:CHARG:  CLM/ATOM   1115.9674 DISTAN   2.07E-01  1.86E-02 %
 
Step History
        DMIX         DMIXT        Red     Pred      Trust     Lambda    MagRel    MagAbs     Beta
  1   3.5000E-02   3.5000E-02 -1.00E+00  1.00E+00 -1.00E+01  1.00E+00  3.50E-02  3.50E-02  1.00E+00
  2   2.5000E-02   2.5000E-02 -1.00E+00  1.00E+00 -1.00E+01  1.00E+00  2.50E-02  8.99E-02  1.00E+00
:JACOBIANS    4.978E-01   6.951E-05
  
:TRUST:  Step 4.30E-02  Charge 7.50E-02 (e) CTO  4.43E-01 (e) PW  6.21E-01 (e)
:DIRM :  MEMORY  1/12 SCALE   1.000
:MIX  :   PRATT  REGULARIZATION:  1.00E-04 GREED: 0.04301  Expand 1.72  0.0430                
     
       CHARGES OF MIXED CHARGE DENSITY
:CTO   : INTERSTITIAL CHARGE =    36.538144
:CPC   : PW Pseudocharge     =   108.792681
:CTO001: CHARGE SPHERE  1    =    79.793601
:CTO002: CHARGE SPHERE  2    =    52.317241
:CTO003: CHARGE SPHERE  3    =    33.585263
:CTO004: CHARGE SPHERE  4    =    33.584679

:NEC03: NUCLEAR AND ELECTRONIC CHARGE    968.00000   968.00000

PW CHANGE     H    K    L      Current       Change    Residue
:PTO001:      0    0    0  2.76448175E-02 -9.052E-04 -2.387E-03
:PTO006:     -1    0   -1 -2.44462873E-03  7.165E-05  1.246E-04
:PTO007:      0    0   -2  3.02842056E-03 -5.115E-04 -1.410E-03
:PTO008:     -1   -1    0  5.68234647E-03 -1.057E-03 -2.771E-03
:PTO009:     -1   -1   -1 -1.05763525E-02  4.129E-04  6.351E-04
:PTO012:      0   -2    0  7.19542389E-03 -8.107E-04 -1.672E-03
:PTO013:     -1   -1   -2  2.27414256E-02 -3.074E-03 -6.847E-03
:PTO014:     -2    0    0  7.13218117E-03 -8.247E-04 -1.680E-03
:PTO015:      0   -2   -1  5.81120113E-03 -2.972E-04 -6.260E-04
:PTO018:     -1   -2    0 -1.06677786E-02  3.319E-04  3.157E-04
:PTO019:     -2   -1    0  1.17277170E-02 -3.734E-04 -3.630E-04
:PTO021:     -1   -2   -1  1.22306531E-02 -3.961E-04 -3.910E-04

:ENE  : ********** TOTAL ENERGY IN Ry =      -292313.12523406

       TOTAL FORCE IN mRy/a.u. = |F|     Fx             Fy             Fz     with/without FOR in case.in2
:FOR001:   1.ATOM          0.000          0.000          0.000          0.000 partial forces
:FOR002:   2.ATOM          4.196          4.170          0.462          0.000 partial forces
:FOR003:   3.ATOM         99.509        -40.638        -90.833          0.000 partial forces
:FOR004:   4.ATOM         75.889         23.136         46.570         55.273 partial forces
       TOTAL FORCE WITH RESPECT TO GLOBAL CARTESIAN COORDINATES:
:FCA001:   1.ATOM                         0.000          0.000          0.000 partial forces
:FCA002:   2.ATOM                         4.170          0.462          0.000 partial forces
:FCA003:   3.ATOM                       -40.638        -90.833          0.000 partial forces
:FCA004:   4.ATOM                        23.136         46.570         55.273 partial forces
       TOTAL FORCE WITH RESPECT TO THE GLOBAL COORDINATE SYSTEM:
:FGL001:   1.ATOM                 0.000000000     0.000000000     0.000000000 partial forces
:FGL002:   2.ATOM                 4.169945553     0.462413146     0.000000000 partial forces
:FGL003:   3.ATOM               -40.638022391   -90.833310192     0.000000000 partial forces
:FGL004:   4.ATOM                23.136462506    46.569630398    55.272844401 partial forces
 Flat Integration
 New Mode for Coulomb Integral
 Consistent 3/8+Simpson combinations
 Extension of core to zero
 LDM version in phi
 Fifth-order quadrature in outwin


            ---------
:ITE003:  3. ITERATION
            ---------

:NATO :    4 INDEPENDENT AND   20 TOTAL ATOMS IN UNITCELL
       SUBSTANCE: blebleble                                                   

       LATTICE                      = P   
:POT  : POTENTIAL OPTION EX_PBE EC_PBE VX_PBE VC_PBE
:LAT  : LATTICE CONSTANTS= 15.19415 15.66734 22.08372    1.571    1.571    1.571
:VOL  : UNIT CELL VOLUME =    5257.07306
       MODE OF CALCULATION IS       = RELA
       NON-SPINPOLARIZED CALCULATION
:IFFT  : FFT-parameters:  120  120  180 Factor: 2.00


   CONVERGENCE PARAMETER FOR PSEUDOCHARGE: NCON=  9
   MAXIMAL VALUE OF RMT(JATOM)*ABSK(NKK) : RK  =29.99804


:VKCOUL :  VK-COUL convergence: 0.224E-08
       ATOMNUMBER=  1 Pb         VCOUL-ZERO =  0.92294E-01
:EFG001:                        EFG         =     0.03603   *10**21  V / m**2
                               V20  TOT/SRF=    -0.02117     0.00189
                               V22  TOT/SRF=     0.00754    -0.00071
                               V22M TOT/SRF=     0.02038    -0.00082
                               V21  TOT/SRF=    -0.00895     0.00315
                               V21M TOT/SRF=    -0.00676    -0.00510

              0.01976    0.02038   -0.00895        0.03603    0.00000    0.00000
              0.02038    0.00469   -0.00676        0.00000   -0.00950    0.00000
             -0.00895   -0.00676   -0.02445        0.00000    0.00000   -0.02654

         MAIN DIRECTIONS OF THE EFG   1.0000 -0.7058  0.1375
                                      0.6991  1.0000  0.1268
                                     -0.2261 -0.0298  1.0000
:ANG001:  ANGLE WITH OLD X-AXIS =        35.7

:ETA001:                         ASYMM. ETA =     0.47279


       ATOMNUMBER=  2 Cs         VCOUL-ZERO = -0.59735E-01
:EFG002:                        EFG         =     0.05845   *10**21  V / m**2
                               V20  TOT/SRF=    -0.01224    -0.00045
                               V22  TOT/SRF=     0.01030    -0.00050
                               V22M TOT/SRF=     0.05034    -0.00101
                               V21  TOT/SRF=     0.00000     0.00000
                               V21M TOT/SRF=     0.00000     0.00000

              0.01737    0.05034    0.00000        0.05845    0.00000    0.00000
              0.05034   -0.00324    0.00000        0.00000   -0.04432    0.00000
              0.00000    0.00000   -0.01413        0.00000    0.00000   -0.01413

         MAIN DIRECTIONS OF THE EFG   1.0000 -0.8160  0.0000
                                      0.8160  1.0000  0.0000
                                      0.0000  0.0000  1.0000
:ANG002:  ANGLE WITH OLD X-AXIS =        39.2

:ETA002:                         ASYMM. ETA =     0.51641


       ATOMNUMBER=  3 Br         VCOUL-ZERO =  0.27245E+00
:EFG003:                        EFG         =     0.39284   *10**21  V / m**2
                               V20  TOT/SRF=     0.34021     0.06383
                               V22  TOT/SRF=     0.02354     0.00572
                               V22M TOT/SRF=    -0.02188    -0.01135
                               V21  TOT/SRF=     0.00000     0.00000
                               V21M TOT/SRF=     0.00000     0.00000

             -0.17288   -0.02188    0.00000       -0.16429    0.00000    0.00000
             -0.02188   -0.21996    0.00000        0.00000   -0.22855    0.00000
              0.00000    0.00000    0.39284        0.00000    0.00000    0.39284

         MAIN DIRECTIONS OF THE EFG   1.0000  0.3930  0.0000
                                     -0.3930  1.0000  0.0000
                                      0.0000  0.0000  1.0000
:ANG003:  ANGLE WITH OLD X-AXIS =        21.5

:ETA003:                         ASYMM. ETA =     0.16359


       ATOMNUMBER=  4 Br         VCOUL-ZERO =  0.27251E+00
:EFG004:                        EFG         =     0.37152   *10**21  V / m**2
                               V20  TOT/SRF=    -0.15383    -0.02760
                               V22  TOT/SRF=    -0.01838    -0.00450
                               V22M TOT/SRF=    -0.28081    -0.05252
                               V21  TOT/SRF=    -0.03151    -0.00407
                               V21M TOT/SRF=     0.00693     0.00787

              0.07043   -0.28081   -0.03151        0.37152    0.00000    0.00000
             -0.28081    0.10720    0.00693        0.00000   -0.20523    0.00000
             -0.03151    0.00693   -0.17763        0.00000    0.00000   -0.16628

         MAIN DIRECTIONS OF THE EFG  -0.9396  1.0000 -0.4726
                                      1.0000  0.8783 -0.5106
                                      0.0665  0.9210  1.0000
:ANG004:  ANGLE WITH OLD X-AXIS =       130.3

:ETA004:                         ASYMM. ETA =     0.10484


     HELLMANN-FEYNMAN-FORCE IN mRy/a.u. = |F|  Fx       Fy             Fz
:FHF001:   1.ATOM      0.000000000000      0.000000000000      0.000000000000      0.000000000000

     HELLMANN-FEYNMAN-FORCE IN mRy/a.u. = |F|  Fx       Fy             Fz
:FHF002:   2.ATOM     12.637485481079     12.518197370299      1.732274193859      0.000000000000

     HELLMANN-FEYNMAN-FORCE IN mRy/a.u. = |F|  Fx       Fy             Fz
:FHF003:   3.ATOM    202.054929237302    -77.982157384297   -186.400047099731      0.000000000000

     HELLMANN-FEYNMAN-FORCE IN mRy/a.u. = |F|  Fx       Fy             Fz
:FHF004:   4.ATOM    148.175004519017     42.462658148099     90.957002629854    108.993478244348

:FIT001: LUSE= 13 SIGMA OF V-XC FIT FOR ATOM  1  0.7734009E-03
:FIT001: LUSE= 13 SIGMA OF V-XC FIT FOR ATOM  1  0.7734009E-03
:FIT002: LUSE= 13 SIGMA OF V-XC FIT FOR ATOM  2  0.1723421E-04
:FIT002: LUSE= 13 SIGMA OF V-XC FIT FOR ATOM  2  0.1723421E-04
:FIT003: LUSE= 13 SIGMA OF V-XC FIT FOR ATOM  3  0.7129144E-03
:FIT003: LUSE= 13 SIGMA OF V-XC FIT FOR ATOM  3  0.7129144E-03
:FIT004: LUSE= 13 SIGMA OF V-XC FIT FOR ATOM  4  0.6337927E-03
:FIT004: LUSE= 13 SIGMA OF V-XC FIT FOR ATOM  4  0.6337927E-03
:DEN  : DENSITY INTEGRAL  =       -114050.65830338   (Ry)
       ELS_POTENTIAL_AT Z=0 and Z=0.5:  -0.53566  -0.53566
       ELS_POTENTIAL_AT Y=0 and Y=0.5:  -0.44805  -0.44805
:VZERO:v0,v0c,v0x  -1.24771  -0.53566  -0.71205 v5,v5c,v5x  -1.24771  -0.53566  -0.71205
:VZERY:v0,v0c,v0x  -1.07993  -0.44805  -0.63187 v5,v5c,v5x  -1.07993  -0.44805  -0.63187
:VZERX:v0,v0c,v0x  -1.07239  -0.44700  -0.62539 v5,v5c,v5x  -1.07239  -0.44700  -0.62539
:LMAX-WF:   10   Non-Spherical LMAX:   4

          ATOMIC SPHERE DEPENDENT PARAMETERS FOR ATOM  Pb        
:e__0001: OVERALL ENERGY PARAMETER IS   -0.0014
          OVERALL BASIS SET ON ATOM IS LAPW
:E2_0001: E( 2)=    0.3986
             APW+lo
:E2_0001: E( 2)=   -0.9573   E(BOTTOM)=   -1.194   E(TOP)=   -0.720  2  3   125
             LOCAL ORBITAL
:E0_0001: E( 0)=   -0.0014
             APW+lo
:E1_0001: E( 1)=   -0.0014
             APW+lo

          ATOMIC SPHERE DEPENDENT PARAMETERS FOR ATOM  Cs        
:e__0002: OVERALL ENERGY PARAMETER IS   -0.0014
          OVERALL BASIS SET ON ATOM IS LAPW
:E2_0002: E( 2)=   -0.0014
             APW+lo
:E2_0002: E( 2)=   -4.8680   E(BOTTOM)=   -4.880   E(TOP)=   -4.856  1  2   121
             LOCAL ORBITAL
:E0_0002: E( 0)=    0.3986
             APW+lo
:E0_0002: E( 0)=   -1.3766   E(BOTTOM)=   -2.059   E(TOP)=   -0.694  4  5   166
             LOCAL ORBITAL
:E1_0002: E( 1)=    0.3986
             APW+lo
:E1_0002: E( 1)=   -0.2037   E(BOTTOM)=   -1.176   E(TOP)=    0.768  3  4   197
             LOCAL ORBITAL

          ATOMIC SPHERE DEPENDENT PARAMETERS FOR ATOM  Br        
:e__0003: OVERALL ENERGY PARAMETER IS   -0.0014
          OVERALL BASIS SET ON ATOM IS LAPW
:E2_0003: E( 2)=   -0.0014
             APW+lo
:E2_0003: E( 2)=   -4.3451   E(BOTTOM)=   -4.348   E(TOP)=   -4.342  1  1   122
             LOCAL ORBITAL
:E0_0003: E( 0)=    0.3986
             APW+lo
:E0_0003: E( 0)=   -0.9523   E(BOTTOM)=   -1.518   E(TOP)=   -0.386  3  4   156
             LOCAL ORBITAL
:E1_0003: E( 1)=   -0.0014
             APW+lo

          ATOMIC SPHERE DEPENDENT PARAMETERS FOR ATOM  Br        
:e__0004: OVERALL ENERGY PARAMETER IS   -0.0014
          OVERALL BASIS SET ON ATOM IS LAPW
:E2_0004: E( 2)=   -0.0014
             APW+lo
:E2_0004: E( 2)=   -4.3451   E(BOTTOM)=   -4.348   E(TOP)=   -4.342  1  1   119
             LOCAL ORBITAL
:E0_0004: E( 0)=    0.3986
             APW+lo
:E0_0004: E( 0)=   -0.9523   E(BOTTOM)=   -1.518   E(TOP)=   -0.386  3  4   152
             LOCAL ORBITAL
:E1_0004: E( 1)=   -0.0014
             APW+lo

       K=   0.05556   0.06250   0.08333            1
:RKM  : MATRIX SIZE  2239LOs: 308  RKM= 7.00  WEIGHT= 8.00  PGR:    
       EIGENVALUES ARE:
:EIG00001:      -4.8652360   -4.8652352   -4.8652265   -4.8652184   -4.8652150
:EIG00006:      -4.8652100   -4.8652014   -4.8651958   -4.8651942   -4.8651917
:EIG00011:      -4.8651903   -4.8651844   -4.8651801   -4.8651672   -4.8651609
:EIG00016:      -4.8651505   -4.8651441   -4.8651411   -4.8651331   -4.8651108
:EIG00021:      -4.3449845   -4.3449824   -4.3449765   -4.3449723   -4.3449531
:EIG00026:      -4.3449463   -4.3449442   -4.3449402   -4.3449382   -4.3449370
:EIG00031:      -4.3449322   -4.3449267   -4.3446908   -4.3446788   -4.3446764
:EIG00036:      -4.3446757   -4.3446199   -4.3446121   -4.3446097   -4.3446059
:EIG00041:      -4.3446050   -4.3446028   -4.3445954   -4.3445844   -4.3445596
:EIG00046:      -4.3445541   -4.3445417   -4.3445371   -4.3445303   -4.3445267
 
:EIG00051:      -4.3445213   -4.3445199   -4.3443989   -4.3443937   -4.3443889
:EIG00056:      -4.3443866   -4.3439519   -4.3439507   -4.3439423   -4.3439416
:EIG00061:      -4.3439365   -4.3439318   -4.3439293   -4.3439234   -4.3439117
:EIG00066:      -4.3439008   -4.3438993   -4.3438954   -4.3438950   -4.3438909
:EIG00071:      -4.3438877   -4.3438851   -4.3438842   -4.3438818   -4.3438798
:EIG00076:      -4.3438791   -4.3438287   -4.3438252   -4.3438242   -4.3438158
:EIG00081:      -1.3827047   -1.3825452   -1.3823670   -1.3822646   -0.9781920
:EIG00086:      -0.9778924   -0.9777665   -0.9766479   -0.9750920   -0.9719429
:EIG00091:      -0.9545181   -0.9541807   -0.9540275   -0.9536482   -0.9529623
:EIG00096:      -0.9524975   -0.9235100   -0.9228581   -0.9220299   -0.9170731
 
:EIG00101:      -0.9169052   -0.9168863   -0.9168215   -0.9167107   -0.9166664
:EIG00106:      -0.9163190   -0.9162800   -0.9161633   -0.9160550   -0.9159074
:EIG00111:      -0.9158186   -0.9109453   -0.8978688   -0.8857996   -0.8856166
:EIG00116:      -0.8848766   -0.4244453   -0.4230980   -0.4221106   -0.4215620
:EIG00121:      -0.4198980   -0.4194885   -0.4192749   -0.4178084   -0.4176783
:EIG00126:      -0.4174983   -0.4170805   -0.4163032   -0.4154030   -0.3805865
:EIG00131:      -0.3413596   -0.2823960   -0.1565419   -0.1554441   -0.1508760
:EIG00136:      -0.1485379   -0.1455294   -0.1379689   -0.1046019   -0.0876917
:EIG00141:      -0.0846463   -0.0828360   -0.0815419   -0.0743041   -0.0662431
:EIG00146:      -0.0597158   -0.0572193   -0.0548682   -0.0520989   -0.0498650
 
:EIG00151:      -0.0483668   -0.0464757   -0.0458292   -0.0451624   -0.0385912
:EIG00156:      -0.0343192   -0.0339660   -0.0331988   -0.0313329   -0.0296034
:EIG00161:      -0.0282716   -0.0254803   -0.0242566   -0.0238028   -0.0061337
:EIG00166:       0.0465773    0.0934592    0.1457079    0.3275088    0.3315220
:EIG00171:       0.3369002    0.3595988    0.3737297    0.3903152    0.3970766
:EIG00176:       0.4752922    0.4811221    0.4878921    0.4935400    0.5186726
:EIG00181:       0.5221465    0.5271588    0.5337981    0.5386039    0.5390135
:EIG00186:       0.5441308    0.5486673    0.5501493    0.5637037    0.5676217
:EIG00191:       0.5685331    0.5774604    0.5876356    0.5922371    0.5966973
:EIG00196:       0.6010434    0.6032559    0.6091724    0.6124074    0.6224284
 
:EIG00201:       0.6268233    0.6317792    0.6381105    0.6469912    0.6494970
:EIG00206:       0.6676375    0.6776185    0.6837737    0.6909360    0.6952599
:EIG00211:       0.7074388    0.7239401    0.7355443    0.7403024    0.7488705
:EIG00216:       0.7526495    0.7547658    0.7608213    0.7677520    0.7785929
:EIG00221:       0.7810533    0.7851215    0.7888943    0.8234973    0.8416016
:EIG00226:       0.8487398    0.8512471    0.8585981    0.8590182    0.8635280
:EIG00231:       0.8667766    0.8747467    0.8903305    0.8940231    0.9039694
:EIG00236:       0.9161735    0.9271336    0.9359051    0.9419534    0.9488879
:EIG00241:       0.9501140    0.9622706    0.9708691    0.9770210    0.9883769
:EIG00246:       0.9899358    0.9996874    1.0027943    1.0063781    1.0102423
 
:EIG00251:       1.0173508    1.0196999    1.0341578    1.0510534    1.0597926
:EIG00256:       1.0655581    1.0709169    1.0783311    1.0811270    1.0850544
:EIG00261:       1.0888011    1.0926774    1.0965190    1.1013265    1.1049889
:EIG00266:       1.1068161    1.1123126    1.1185876    1.1218814    1.1268020
:EIG00271:       1.1322113    1.1366325    1.1439955    1.1468242    1.1498494
:EIG00276:       1.1549230    1.1593017    1.1623184    1.1641411    1.1656655
:EIG00281:       1.1750254    1.1786282    1.1793395    1.1837093    1.1891897
:EIG00286:       1.1921259    1.1972470    1.2003077    1.2132495    1.2156950
:EIG00291:       1.2227495    1.2274495    1.2304370    1.2342997    1.2373708
:EIG00296:       1.2397406    1.2498781    1.2504301    1.2561687    1.2598791
 
:EIG00301:       1.2684938    1.2734337    1.2806585    1.2814405    1.2861366
:EIG00306:       1.2919840    1.3068271    1.3121157    1.3147924    1.3179645
:EIG00311:       1.3213125    1.3338151    1.3367538    1.3391851    1.3528894
:EIG00316:       1.3646794    1.3669043    1.3706686    1.3747018    1.3838505
:EIG00321:       1.3880713    1.3919676    1.4017138    1.4100067    1.4115245
:EIG00326:       1.4213721    1.4244238    1.4305134    1.4340277    1.4384083
:EIG00331:       1.4411564    1.4426808    1.4499777    1.4582599    1.4631935
:EIG00336:       1.4696985    1.4716506    1.4721346    1.4809777    1.4844599
:EIG00341:       1.4885107    1.4953548    1.5017778    1.5044328    1.5079522
:EIG00346:       1.5153169    1.5200430    1.5238816    1.5244411    1.5283038
 
:EIG00351:       1.5324792    1.5405103    1.5478224    1.5491880    1.5504769
:EIG00356:       1.5591579    1.5674850    1.5748195    1.5805846    1.5844522
:EIG00361:       1.5866258    1.5963006    1.6097076    1.6144815    1.6240312
:EIG00366:       1.6286494    1.6388384    1.6402480    1.6453399    1.6545473
:EIG00371:       1.6561886    1.6616122    1.6642935    1.6734559    1.6764452
:EIG00376:       1.6790857    1.6820493    1.6844286    1.6900710
       ********************************************************

:KPT   :      NUMBER OF K-POINTS:    60
       Insulator, EF-inconsistency corrected
:GAP (global)   :  0.181801 Ry =     2.474 eV (accurate value if proper k-mesh)
         Bandranges (emin - emax) and occupancy:
:BAN00158: 158   -0.042062   -0.031529  2.00000000
:BAN00159: 159   -0.039133   -0.030893  2.00000000
:BAN00160: 160   -0.039133   -0.029603  2.00000000
:BAN00161: 161   -0.034650   -0.028272  2.00000000
:BAN00162: 162   -0.034650   -0.025480  2.00000000
:BAN00163: 163   -0.029166   -0.019847  2.00000000
:BAN00164: 164   -0.028482   -0.019847  2.00000000
:BAN00165: 165   -0.006134    0.050675  2.00000000
:BAN00166: 166    0.009975    0.058799  2.00000000
:BAN00167: 167    0.038732    0.103413  2.00000000
:BAN00168: 168    0.038732    0.145708  2.00000000
:BAN00169: 169    0.327509    0.418511  0.00000000
:BAN00170: 170    0.331522    0.418511  0.00000000
:BAN00171: 171    0.336900    0.422916  0.00000000
:BAN00172: 172    0.359098    0.433401  0.00000000
:BAN00173: 173    0.369108    0.440442  0.00000000
        Energy to separate low and high energystates:   -0.47445


:NOE  : NUMBER OF ELECTRONS          =  336.000

:FER  : F E R M I - ENERGY(TETRAH.M.)=   0.1457078613
:GMA  : POTENTIAL AND CHARGE CUT-OFF  12.00 Ry**.5

:POS001: ATOM   -1 X,Y,Z = 0.50000 0.50000 0.50000  MULT= 4  ZZ= 82.000  Pb        

       LMMAX 28
       LM=   0 0  2 0  2 1 -2 1  2 2 -2 2  4 0  4 1 -4 1  4 2 -4 2  4 3 -4 3  4 4 -4 4  6 0  6 1
        -6 1  6 2 -6 2  6 3 -6 3  6 4 -6 4  6 5 -6 5  6 6 -6 6

:CHA001: TOTAL VALENCE CHARGE INSIDE SPHERE   1 =  11.3233    (RMT=  2.5000 )
:PCS001: PARTIAL CHARGES SPHERE =  1 S,P,D,F,PX,PY,PZ,D-Z2,D-X2Y2,D-XY,D-XZ,D-YZ 
:QTL001: 1.3326 0.2711 9.7047 0.0126 0.0895 0.0902 0.0914 1.9488 1.9370 1.9474 1.9361 1.9354
        Q-s-low E-s-low   Q-p-low E-p-low   Q-d-low E-d-low   Q-f-low E-f-low
:EPL001:  0.0185 -0.9602    0.0089 -0.9517    9.6299 -0.9184    0.0010 -0.9616
        Q-s-hi  E-s-hi    Q-p-hi  E-p-hi    Q-d-hi  E-d-hi    Q-f-hi  E-f-hi 
:EPH001:  1.3141 -0.2348    0.2622 -0.0991    0.0748 -0.0635    0.0115 -0.0651

                      QXX         QXY         QYY         QZZ       UP TO R
:VZZ001:             0.65295     0.66963     0.14031    -0.79325       2.500

:POS002: ATOM   -2 X,Y,Z = 0.48491 0.94655 0.25000  MULT= 4  ZZ= 55.000  Cs        

       LMMAX 28
       LM=   0 0  1 1 -1 1  2 0  2 2 -2 2  3 1 -3 1  3 3 -3 3  4 0  4 2 -4 2  4 4 -4 4  5 1 -5 1
         5 3 -5 3  5 5 -5 5  6 0  6 2 -6 2  6 4 -6 4  6 6 -6 6

:CHA002: TOTAL VALENCE CHARGE INSIDE SPHERE   2 =  16.2972    (RMT=  2.5000 )
:PCS002: PARTIAL CHARGES SPHERE =  2 S,P,D,F,PX,PY,PZ,D-Z2,D-X2Y2,D-XY,D-XZ,D-YZ 
:QTL002: 1.7962 4.489410.0095 0.0018 1.4957 1.4966 1.4971 2.0014 2.0023 2.0011 2.0020 2.0027
        Q-s-low E-s-low   Q-p-low E-p-low   Q-d-low E-d-low   Q-f-low E-f-low
:EPL002:  1.7867 -1.3821    0.0022 -0.9511    9.9946 -4.8651    0.0001 -1.0288
        Q-s-hi  E-s-hi    Q-p-hi  E-p-hi    Q-d-hi  E-d-hi    Q-f-hi  E-f-hi 
:EPH002:  0.0095 -0.0831    4.4872 -0.4067    0.0149 -0.0580    0.0017 -0.0510

                      QXX         QXY         QYY         QZZ       UP TO R
:VZZ002:             0.56066     1.62512    -0.11585    -0.44481       2.500

:POS003: ATOM   -3 X,Y,Z = 0.56000 0.50750 0.25000  MULT= 4  ZZ= 35.000  Br        

       LMMAX 28
       LM=   0 0  1 1 -1 1  2 0  2 2 -2 2  3 1 -3 1  3 3 -3 3  4 0  4 2 -4 2  4 4 -4 4  5 1 -5 1
         5 3 -5 3  5 5 -5 5  6 0  6 2 -6 2  6 4 -6 4  6 6 -6 6

:CHA003: TOTAL VALENCE CHARGE INSIDE SPHERE   3 =  15.9413    (RMT=  2.5000 )
:PCS003: PARTIAL CHARGES SPHERE =  3 S,P,D,F,PX,PY,PZ,D-Z2,D-X2Y2,D-XY,D-XZ,D-YZ 
:QTL003: 1.7963 4.128110.0140 0.0024 1.3955 1.3995 1.3330 2.0109 2.0004 2.0002 2.0017 2.0010
        Q-s-low E-s-low   Q-p-low E-p-low   Q-d-low E-d-low   Q-f-low E-f-low
:EPL003:  1.7648 -0.9533    0.0061 -0.9215   10.0001 -4.3438    0.0006 -0.9317
        Q-s-hi  E-s-hi    Q-p-hi  E-p-hi    Q-d-hi  E-d-hi    Q-f-hi  E-f-hi 
:EPH003:  0.0315 -0.2533    4.1220 -0.0654    0.0140 -0.1224    0.0018 -0.1718

                      QXX         QXY         QYY         QZZ       UP TO R
:VZZ003:            -5.44077    -0.34444    -6.67990    12.12067       2.500

:POS004: ATOM   -4 X,Y,Z = 0.19962 0.70227 0.46752  MULT= 8  ZZ= 35.000  Br        

       LMMAX 49

:CHA004: TOTAL VALENCE CHARGE INSIDE SPHERE   4 =  15.9420    (RMT=  2.5000 )
:PCS004: PARTIAL CHARGES SPHERE =  4 S,P,D,F,PX,PY,PZ,D-Z2,D-X2Y2,D-XY,D-XZ,D-YZ 
:QTL004: 1.7961 4.129410.0136 0.0024 1.3680 1.3648 1.3966 2.0027 2.0019 2.0073 2.0008 2.0009
        Q-s-low E-s-low   Q-p-low E-p-low   Q-d-low E-d-low   Q-f-low E-f-low
:EPL004:  1.7653 -0.9532    0.0059 -0.9205   10.0000 -4.3438    0.0006 -0.9343
        Q-s-hi  E-s-hi    Q-p-hi  E-p-hi    Q-d-hi  E-d-hi    Q-f-hi  E-f-hi 
:EPH004:  0.0308 -0.2538    4.1236 -0.0653    0.0136 -0.1249    0.0018 -0.1664

                      QXX         QXY         QYY         QZZ       UP TO R
:VZZ004:             2.30672    -8.65527     3.28732    -5.59404       2.500

:CHA  : TOTAL VALENCE CHARGE INSIDE UNIT CELL =     336.000000

:SUM  : SUM OF EIGENVALUES =        -803.616116520


        1.ATOM      Pb                   19 CORE STATES
:1S 001: 1S               -6465.881678279 Ry
:2S 001: 2S               -1154.927898011 Ry
:2PP001: 2P*              -1108.918537793 Ry
:2P 001: 2P                -947.959798564 Ry
:3S 001: 3S                -276.717213014 Ry
:3PP001: 3P*               -255.991918215 Ry
:3P 001: 3P                -220.078105377 Ry
:3DD001: 3D*               -186.086472842 Ry
:3D 001: 3D                -178.446154390 Ry
:4S 001: 4S                 -62.151886127 Ry
:4PP001: 4P*                -53.187073437 Ry
:4P 001: 4P                 -44.396378696 Ry
:4DD001: 4D*                -29.815564708 Ry
:4D 001: 4D                 -28.175368174 Ry
:5S 001: 5S                  -9.926654102 Ry
:5PP001: 5P*                 -6.871464173 Ry
:5P 001: 5P                  -5.229982725 Ry
:4FF001: 4F*                 -9.302936839 Ry
:4F 001: 4F                  -8.933202718 Ry

        2.ATOM      Cs                   12 CORE STATES
       CORE-FORCE in mRy/a.u. = |F|      Fx             Fy             Fz
:FCO002:   2.ATOM      8.486135046444     -8.396048861911     -1.233228095245      0.000000000000

:1S 002: 1S               -2628.602400435 Ry
:2S 002: 2S                -411.675394616 Ry
:2PP002: 2P*               -387.238233035 Ry
:2P 002: 2P                -361.346445524 Ry
:3S 002: 3S                 -85.125001640 Ry
:3PP002: 3P*                -74.921608257 Ry
:3P 002: 3P                 -69.959729527 Ry
:3DD002: 3D*                -52.040483923 Ry
:3D 002: 3D                 -50.987150178 Ry
:4S 002: 4S                 -15.590421519 Ry
:4PP002: 4P*                -11.929563435 Ry
:4P 002: 4P                 -10.917612256 Ry

        3.ATOM      Br                    7 CORE STATES
       CORE-FORCE in mRy/a.u. = |F|      Fx             Fy             Fz
[...]
:EIG00136:      -0.1548108   -0.1514096   -0.1474750   -0.0760397   -0.0620359
:EIG00141:      -0.0569531   -0.0550169   -0.0540050   -0.0490857   -0.0407242
:EIG00146:      -0.0313402   -0.0279941   -0.0267525   -0.0248318   -0.0228866
 
:EIG00151:      -0.0214376   -0.0179211   -0.0161815   -0.0143328   -0.0134131
:EIG00156:      -0.0125420   -0.0120397   -0.0056738   -0.0006424    0.0012298
:EIG00161:       0.0029868    0.0070203    0.0107902    0.0129065    0.0247477
:EIG00166:       0.0405655    0.0769200    0.1212844    0.2693171    0.2721254
:EIG00171:       0.2817900    0.3002109    0.3143762    0.3296157    0.4095857
:EIG00176:       0.4833781    0.4877595    0.4922676    0.4965511    0.5001595
:EIG00181:       0.5036664    0.5058346    0.5204445    0.5268692    0.5334290
:EIG00186:       0.5382041    0.5430962    0.5449607    0.5510943    0.5526102
:EIG00191:       0.5547076    0.5564398    0.5661043    0.5765166    0.5840956
:EIG00196:       0.5875294    0.6052799    0.6086932    0.6143076    0.6209413
 
:EIG00201:       0.6246007    0.6296810    0.6351154    0.6457315    0.6479085
:EIG00206:       0.6691567    0.6781880    0.6801202    0.6905353    0.6991444
:EIG00211:       0.7097190    0.7207547    0.7346171    0.7367100    0.7470954
:EIG00216:       0.7510007    0.7574601    0.7672707    0.7715500    0.7845982
:EIG00221:       0.7857938    0.7937588    0.7945446    0.8164069    0.8364578
:EIG00226:       0.8436055    0.8475565    0.8541040    0.8588058    0.8608404
:EIG00231:       0.8655987    0.8730683    0.8783083    0.8915978    0.9069279
:EIG00236:       0.9151458    0.9203478    0.9315689    0.9392539    0.9450850
:EIG00241:       0.9502164    0.9549515    0.9616669    0.9728212    0.9820595
:EIG00246:       0.9829422    0.9867499    0.9990028    1.0074917    1.0095234
 
:EIG00251:       1.0127049    1.0143472    1.0306939    1.0461570    1.0546771
:EIG00256:       1.0582578    1.0674319    1.0737177    1.0759667    1.0807274
:EIG00261:       1.0828543    1.0913578    1.0933299    1.0982727    1.1036958
:EIG00266:       1.1095573    1.1129697    1.1143244    1.1183898    1.1235996
:EIG00271:       1.1295547    1.1307592    1.1422876    1.1439451    1.1487749
:EIG00276:       1.1524693    1.1564707    1.1587229    1.1602713    1.1644809
:EIG00281:       1.1718766    1.1769069    1.1774570    1.1780956    1.1849682
:EIG00286:       1.1876818    1.1932106    1.1991245    1.2100253    1.2146727
:EIG00291:       1.2184700    1.2202230    1.2268401    1.2304548    1.2359267
:EIG00296:       1.2414349    1.2443722    1.2461659    1.2540829    1.2608633
 
:EIG00301:       1.2666729    1.2677993    1.2735634    1.2783086    1.2821400
:EIG00306:       1.2850224    1.2985424    1.3029596    1.3059608    1.3086163
:EIG00311:       1.3170283    1.3267213    1.3296102    1.3330026    1.3430586
:EIG00316:       1.3538996    1.3620901    1.3634436    1.3667551    1.3812239
:EIG00321:       1.3823715    1.3865770    1.3913646    1.3978399    1.4024068
:EIG00326:       1.4108802    1.4174247    1.4206315    1.4267327    1.4289790
:EIG00331:       1.4341188    1.4389844    1.4445427    1.4455144    1.4538860
:EIG00336:       1.4615559    1.4679662    1.4725747    1.4749742    1.4812569
:EIG00341:       1.4836859    1.4853308    1.4885526    1.5017302    1.5030897
:EIG00346:       1.5100538    1.5159723    1.5192510    1.5256738    1.5268829
 
:EIG00351:       1.5307742    1.5376691    1.5431933    1.5450316    1.5503153
:EIG00356:       1.5561659    1.5627068    1.5673696    1.5756136    1.5789139
:EIG00361:       1.5852015    1.5886083    1.6068283    1.6124587    1.6168855
       ********************************************************

:KPT   :      NUMBER OF K-POINTS:    60
       Insulator, EF-inconsistency corrected
:GAP (global)   :  0.148033 Ry =     2.014 eV (accurate value if proper k-mesh)
         Bandranges (emin - emax) and occupancy:
:BAN00158: 158   -0.011038    0.000356  2.00000000
:BAN00159: 159   -0.009925    0.000738  2.00000000
:BAN00160: 160   -0.009925    0.001541  2.00000000
:BAN00161: 161   -0.007749    0.003029  2.00000000
:BAN00162: 162   -0.007749    0.007020  2.00000000
:BAN00163: 163    0.004234    0.013201  2.00000000
:BAN00164: 164    0.005670    0.013201  2.00000000
:BAN00165: 165    0.017716    0.040793  2.00000000
:BAN00166: 166    0.019036    0.046502  2.00000000
:BAN00167: 167    0.026720    0.083289  2.00000000
:BAN00168: 168    0.026720    0.121284  2.00000000
:BAN00169: 169    0.269317    0.375397  0.00000000
:BAN00170: 170    0.272125    0.375397  0.00000000
:BAN00171: 171    0.281790    0.382935  0.00000000
:BAN00172: 172    0.300211    0.384925  0.00000000
:BAN00173: 173    0.310083    0.400549  0.00000000
        Energy to separate low and high energystates:   -0.21238


:NOE  : NUMBER OF ELECTRONS          =  336.000

:FER  : F E R M I - ENERGY(TETRAH.M.)=   0.1212843996
:GMA  : POTENTIAL AND CHARGE CUT-OFF  12.00 Ry**.5

:POS001: ATOM   -1 X,Y,Z = 0.50000 0.50000 0.50000  MULT= 4  ZZ= 82.000  Pb        

       LMMAX 28
       LM=   0 0  2 0  2 1 -2 1  2 2 -2 2  4 0  4 1 -4 1  4 2 -4 2  4 3 -4 3  4 4 -4 4  6 0  6 1
        -6 1  6 2 -6 2  6 3 -6 3  6 4 -6 4  6 5 -6 5  6 6 -6 6

:CHA001: TOTAL VALENCE CHARGE INSIDE SPHERE   1 =  11.5214    (RMT=  2.5000 )
:PCS001: PARTIAL CHARGES SPHERE =  1 S,P,D,F,PX,PY,PZ,D-Z2,D-X2Y2,D-XY,D-XZ,D-YZ 
:QTL001: 1.3766 0.3923 9.7353 0.0147 0.1303 0.1309 0.1311 1.9553 1.9427 1.9541 1.9419 1.9413
        Q-s-low E-s-low   Q-p-low E-p-low   Q-d-low E-d-low   Q-f-low E-f-low
:EPL001:  1.0869 -0.4650    0.0162 -0.7973    9.6678 -1.0789    0.0015 -0.8526
        Q-s-hi  E-s-hi    Q-p-hi  E-p-hi    Q-d-hi  E-d-hi    Q-f-hi  E-f-hi 
:EPH001:  0.2897  0.0275    0.3760 -0.0995    0.0676 -0.0370    0.0133 -0.0398

                      QXX         QXY         QYY         QZZ       UP TO R
:VZZ001:             0.38042     0.73628    -0.14563    -0.23479       2.500

:POS002: ATOM   -2 X,Y,Z = 0.48491 0.94655 0.25000  MULT= 4  ZZ= 55.000  Cs        

       LMMAX 28
       LM=   0 0  1 1 -1 1  2 0  2 2 -2 2  3 1 -3 1  3 3 -3 3  4 0  4 2 -4 2  4 4 -4 4  5 1 -5 1
         5 3 -5 3  5 5 -5 5  6 0  6 2 -6 2  6 4 -6 4  6 6 -6 6

:CHA002: TOTAL VALENCE CHARGE INSIDE SPHERE   2 =  16.3232    (RMT=  2.5000 )
:PCS002: PARTIAL CHARGES SPHERE =  2 S,P,D,F,PX,PY,PZ,D-Z2,D-X2Y2,D-XY,D-XZ,D-YZ 
:QTL002: 1.7981 4.510610.0124 0.0020 1.5026 1.5036 1.5043 2.0019 2.0029 2.0016 2.0025 2.0034
        Q-s-low E-s-low   Q-p-low E-p-low   Q-d-low E-d-low   Q-f-low E-f-low
:EPL002:  1.7880 -1.3990    4.3813 -0.4331    9.9947 -4.8857    0.0001 -0.9196
        Q-s-hi  E-s-hi    Q-p-hi  E-p-hi    Q-d-hi  E-d-hi    Q-f-hi  E-f-hi 
:EPH002:  0.0101 -0.0523    0.1292 -0.0396    0.0177 -0.0261    0.0019 -0.0176

                      QXX         QXY         QYY         QZZ       UP TO R
:VZZ002:             0.78390     2.19227    -0.08217    -0.70172       2.500

:POS003: ATOM   -3 X,Y,Z = 0.56000 0.50750 0.25000  MULT= 4  ZZ= 35.000  Br        

       LMMAX 28
       LM=   0 0  1 1 -1 1  2 0  2 2 -2 2  3 1 -3 1  3 3 -3 3  4 0  4 2 -4 2  4 4 -4 4  5 1 -5 1
         5 3 -5 3  5 5 -5 5  6 0  6 2 -6 2  6 4 -6 4  6 6 -6 6

:CHA003: TOTAL VALENCE CHARGE INSIDE SPHERE   3 =  15.7598    (RMT=  2.5000 )
:PCS003: PARTIAL CHARGES SPHERE =  3 S,P,D,F,PX,PY,PZ,D-Z2,D-X2Y2,D-XY,D-XZ,D-YZ 
:QTL003: 1.7829 3.959310.0141 0.0029 1.3527 1.3593 1.2474 2.0105 2.0003 2.0002 2.0019 2.0012
        Q-s-low E-s-low   Q-p-low E-p-low   Q-d-low E-d-low   Q-f-low E-f-low
:EPL003:  1.7707 -0.9057    0.0871 -0.4832   10.0046 -4.2858    0.0014 -0.6847
        Q-s-hi  E-s-hi    Q-p-hi  E-p-hi    Q-d-hi  E-d-hi    Q-f-hi  E-f-hi 
:EPH003:  0.0122 -0.0537    3.8722 -0.0344    0.0095 -0.0265    0.0015 -0.0675

                      QXX         QXY         QYY         QZZ       UP TO R
:VZZ003:            -9.12811    -0.26826   -11.05582    20.18393       2.500

:POS004: ATOM   -4 X,Y,Z = 0.19962 0.70227 0.46752  MULT= 8  ZZ= 35.000  Br        

       LMMAX 49

:CHA004: TOTAL VALENCE CHARGE INSIDE SPHERE   4 =  15.7587    (RMT=  2.5000 )
:PCS004: PARTIAL CHARGES SPHERE =  4 S,P,D,F,PX,PY,PZ,D-Z2,D-X2Y2,D-XY,D-XZ,D-YZ 
:QTL004: 1.7828 3.958810.0137 0.0028 1.3050 1.2996 1.3542 2.0026 2.0021 2.0071 2.0009 2.0010
        Q-s-low E-s-low   Q-p-low E-p-low   Q-d-low E-d-low   Q-f-low E-f-low
:EPL004:  1.7707 -0.9045    0.0847 -0.4826   10.0045 -4.2848    0.0014 -0.6870
        Q-s-hi  E-s-hi    Q-p-hi  E-p-hi    Q-d-hi  E-d-hi    Q-f-hi  E-f-hi 
:EPH004:  0.0120 -0.0554    3.8742 -0.0335    0.0092 -0.0289    0.0015 -0.0635

                      QXX         QXY         QYY         QZZ       UP TO R
:VZZ004:             3.99512   -14.38710     5.56625    -9.56137       2.500

:CHA  : TOTAL VALENCE CHARGE INSIDE UNIT CELL =     336.000000

:SUM  : SUM OF EIGENVALUES =        -802.948318652


        1.ATOM      Pb                   19 CORE STATES
:1S 001: 1S               -6466.070304886 Ry
:2S 001: 2S               -1155.106188136 Ry
:2PP001: 2P*              -1109.098892194 Ry
:2P 001: 2P                -948.138629706 Ry
:3S 001: 3S                -276.887511334 Ry
:3PP001: 3P*               -256.162724236 Ry
:3P 001: 3P                -220.248252604 Ry
:3DD001: 3D*               -186.257239294 Ry
:3D 001: 3D                -178.616668308 Ry
:4S 001: 4S                 -62.319070605 Ry
:4PP001: 4P*                -53.354288477 Ry
:4P 001: 4P                 -44.563407425 Ry
:4DD001: 4D*                -29.982474617 Ry
:4D 001: 4D                 -28.342202018 Ry
:5S 001: 5S                 -10.092629750 Ry
:5PP001: 5P*                 -7.037704926 Ry
:5P 001: 5P                  -5.396446349 Ry
:4FF001: 4F*                 -9.469340787 Ry
:4F 001: 4F                  -9.099576704 Ry

        2.ATOM      Cs                   12 CORE STATES
       CORE-FORCE in mRy/a.u. = |F|      Fx             Fy             Fz
:FCO002:   2.ATOM      6.409329008541     -6.223937397743      1.530392632204      0.000000000000

:1S 002: 1S               -2628.651960960 Ry
:2S 002: 2S                -411.714977831 Ry
:2PP002: 2P*               -387.279719340 Ry
:2P 002: 2P                -361.387298145 Ry
:3S 002: 3S                 -85.153303270 Ry
:3PP002: 3P*                -74.950380084 Ry
:3P 002: 3P                 -69.988077254 Ry
:3DD002: 3D*                -52.069826214 Ry
:3D 002: 3D                 -51.016329207 Ry
:4S 002: 4S                 -15.612002961 Ry
:4PP002: 4P*                -11.950983571 Ry
:4P 002: 4P                 -10.938815847 Ry

        3.ATOM      Br                    7 CORE STATES
       CORE-FORCE in mRy/a.u. = |F|      Fx             Fy             Fz
:FCO003:   3.ATOM     82.738381650773    -71.440717029534     41.735641225396      0.000000000000

:1S 003: 1S                -977.915093770 Ry
:2S 003: 2S                -126.709457570 Ry
:2PP003: 2P*               -114.040141128 Ry
:2P 003: 2P                -110.548667255 Ry
:3S 003: 3S                 -16.877439715 Ry
:3PP003: 3P*                -12.472871160 Ry
:3P 003: 3P                 -11.970573786 Ry

        4.ATOM      Br                    7 CORE STATES
       CORE-FORCE in mRy/a.u. = |F|      Fx             Fy             Fz
:FCO004:   4.ATOM    113.435194664353     77.256773781729     63.524426749405     53.512442474044

:1S 004: 1S                -977.914105196 Ry
:2S 004: 2S                -126.708457847 Ry
:2PP004: 2P*               -114.039142867 Ry
:2P 004: 2P                -110.547668765 Ry
:3S 004: 3S                 -16.876425577 Ry
:3PP004: 3P*                -12.471856619 Ry
:3P 004: 3P                 -11.969558776 Ry
:CINT001 Core Integral Atom   1   67.995200
:CINT002 Core Integral Atom   2   35.999909
:CINT003 Core Integral Atom   3   17.999988
:CINT004 Core Integral Atom   4   17.999988

       DENSITY AT NUCLEUS
        JATOM        VALENCE       SEMI-CORE          CORE           TOTAL
:RTO001:   1     2059.840119        0.000000  9911370.659662  9913430.499781
:RTO002:   2      321.521473        0.000000   438173.471323   438494.992796
:RTO003:   3       72.170801        0.000000    45839.372542    45911.543343
:RTO004:   4       72.162937        0.000000    45839.373348    45911.536284
     
       CHARGES OF NEW CHARGE DENSITY
:NTO   : INTERSTITIAL CHARGE =    35.512228
:NPC   : PW Pseudocharge     =   102.658569
:NTO001: CHARGE SPHERE  1    =    79.516608
:NTO002: CHARGE SPHERE  2    =    52.323137
:NTO003: CHARGE SPHERE  3    =    33.759807
:NTO004: CHARGE SPHERE  4    =    33.758729

:NEC01: NUCLEAR AND ELECTRONIC CHARGE    968.00000   967.98027
     
       CHARGES OF OLD CHARGE DENSITY
:OTO   : INTERSTITIAL CHARGE =    35.531272
:OPC   : PW Pseudocharge     =   102.713780
:OTO001: CHARGE SPHERE  1    =    79.516587
:OTO002: CHARGE SPHERE  2    =    52.323103
:OTO003: CHARGE SPHERE  3    =    33.759882
:OTO004: CHARGE SPHERE  4    =    33.758805

:NEC02: NUCLEAR AND ELECTRONIC CHARGE    968.00000   968.00000
     
       CONVERGENCE TEST
:DTO001: DIFFERENCE IN SPHERE  1 =  0.0002325
:DTO002: DIFFERENCE IN SPHERE  2 =  0.0000888
:DTO003: DIFFERENCE IN SPHERE  3 =  0.0000980
:DTO004: DIFFERENCE IN SPHERE  4 =  0.0000981

:DIS  :  CHARGE DISTANCE       ( 0.0002325 for atom    1 spin 1)      0.0001231
 PW Mixed is         2247
 
******************************************************
* MULTISECANT MIXING VER9 RELEASE 10.4.0              *
* Standard Mode with controls                        *
* Fixed density scale                                *
* Regularization       1.000E-04                     *
* Trust Upper Limit    5.000E+00                     *
* Max Number of Memory Steps    8                    *
******************************************************
 
:PWTMP   3.9481E+03  2.5000E+03  5.2571E+03
:PLANE:  PW TOTAL      8.0814 DISTAN   7.80E-04  9.65E-03 %
:CHARG:  CLM/ATOM   1115.9443 DISTAN   1.77E-04  1.58E-05 %
 
Step History
        DMIX         DMIXT        Red     Pred      Trust     Lambda    MagRel    MagAbs     Beta
  2   2.5000E-02   2.5000E-02  3.68E-01  1.00E+00 -1.00E+01  1.00E+00  2.50E-02  8.99E-02  1.00E+00
  3   4.3011E-02   4.3011E-02  8.39E-01  1.00E+00 -1.00E+01  8.34E-02  4.30E-02  5.70E-02  1.00E+00
  4   1.0753E-01   1.0753E-01  8.31E-01  1.00E+00  3.20E-01  1.28E+00  1.08E-01  1.20E-01  9.96E-01
  5   2.4725E-01   1.5046E-01  7.09E-01  7.79E-01  5.99E-01  1.25E+00  2.28E-01  2.11E-01  1.00E+00
  6   3.5000E-01   2.8167E-01  4.64E-01  5.18E-01  1.34E+00  1.08E+00  4.77E-01  3.12E-01  1.00E+00
  7   3.5000E-01   3.5000E-01  7.41E-02  1.62E-01  3.81E+00  8.03E-01  9.78E-01  2.97E-01  1.00E+00
  8   2.7788E-01   2.7788E-01  4.93E-01  6.36E-01  1.50E+01  1.12E+00  4.93E-01  1.11E-02  1.00E+00
  9   3.5000E-01   3.5000E-01  3.11E-01  6.69E-01  1.88E+01  8.74E-01  6.53E-01  7.24E-03  1.00E+00
 10   3.5000E-01   3.5000E-01 -1.00E+00  4.82E-01  2.25E+01  1.00E+00  7.57E-01  2.61E-03  1.00E+00
:JACOBIANS    2.351E+00   1.967E+00
  
:NORMS:  1/Froebius, Min, Max, Used   0.8940E+00  0.6753E+00  0.1017E+01  0.9345E+00
:INFO :  Number of Memory Steps    8 Skipping    1
:INFO :  SLambda=    1.0491385869  Max    1.0491385869
:PREDicted Charge, CTotal, PW Trust    3.149E-04   8.865E-04   2.190E-03
:PREDicted DMix, Beta, BLim   6.8957E-01  1.2675E+00  6.1348E+00

Eigenvalues, unscaled except for SY+YY
   #     SY Real        SY Imag          SS             YY         SY+YY Real      SY+YY Imag
   1   3.829328E+00   0.000000E+00   4.070870E+00   4.661084E+00   8.658882E+00   0.000000E+00
   2   2.152582E+00   0.000000E+00   1.875278E+00   2.443048E+00   4.713801E+00   0.000000E+00
   3   2.866410E-01   0.000000E+00   2.660231E-01   4.612196E-01   7.343364E-01   0.000000E+00
   4   2.504970E-01   0.000000E+00   1.491573E-01   3.161265E-01   6.059480E-01   0.000000E+00
   5   6.292580E-02   0.000000E+00   3.059812E-02   1.137796E-01   1.876206E-01   0.000000E+00
   6   2.032328E-03   0.000000E+00   1.232200E-03   3.488616E-03   5.621974E-03   0.000000E+00
   7   7.276543E-04   0.000000E+00   3.377071E-04   1.239015E-03   1.849880E-05   0.000000E+00
   8   4.331234E-06   0.000000E+00   1.345704E-06   1.390450E-05   2.075336E-03   0.000000E+00
 
:INFO :  Singular value  8.671E+00 Weight  1.000E+00 Projection -6.081E-05
:INFO :  Singular value  4.710E+00 Weight  1.000E+00 Projection  2.159E-04
:INFO :  Singular value  7.354E-01 Weight  1.000E+00 Projection -6.209E-04
:INFO :  Singular value  6.054E-01 Weight  1.000E+00 Projection -4.498E-04
:INFO :  Singular value  1.874E-01 Weight  1.000E+00 Projection  4.068E-04
:INFO :  Singular value  5.625E-03 Weight  9.932E-01 Projection  1.224E-02
:INFO :  Singular value  2.074E-03 Weight  9.519E-01 Projection -1.477E-02
:INFO :  Singular value  1.850E-05 Weight  1.572E-03 Projection  4.985E-05
:RANK :  ACTIVE   6.95/8  =  86.83 % ; YY RANK   6.86/8  =  85.74 %
 
:BLIM :  VZERO Control Off
:TRUST:  Step 2.25E+01  Charge 9.68E-02 (e) CTO  3.43E-01 (e) PW  1.05E+00 (e)
:DIRM :  MEMORY  8/8  SCALE   1.000 RED  0.30 PRED  0.48 NEXT  0.30 
:TRAVE:  Charge 4.66E-03 (e) CTO  1.60E-02 (e) PW  6.48E-02 (e)
:DIRP :  |MSR1|= 7.826E-04 |PRATT|= 7.799E-04 ANGLE=   6.2 DEGREES
:DIRQ :  |MSR1|= 6.166E-04 |PRATT|= 7.073E-04 ANGLE=  16.1 DEGREES
:DIRT :  |MSR1|= 9.964E-04 |PRATT|= 1.053E-03 ANGLE=  12.1 DEGREES
:MIX  :   MSE1   REGULARIZATION:  4.66E-04 GREED: 0.35000  Newton 1.00  0.9464                
     
       CHARGES OF MIXED CHARGE DENSITY
:CTO   : INTERSTITIAL CHARGE =    35.531864
:CPC   : PW Pseudocharge     =   102.715841
:CTO001: CHARGE SPHERE  1    =    79.516662
:CTO002: CHARGE SPHERE  2    =    52.323148
:CTO003: CHARGE SPHERE  3    =    33.759793
:CTO004: CHARGE SPHERE  4    =    33.758716

:NEC03: NUCLEAR AND ELECTRONIC CHARGE    968.00000   968.00000

PW CHANGE     H    K    L      Current       Change    Residue
:PTO001:      0    0    0  2.62974669E-02  5.046E-07  4.783E-07
:PTO006:     -1    0   -1 -2.36691784E-03 -1.166E-07 -1.231E-07
:PTO007:      0    0   -2  2.41418412E-03 -7.650E-07 -9.575E-07
:PTO008:     -1   -1    0  4.58960927E-03 -1.321E-06 -1.700E-06
:PTO009:     -1   -1   -1 -1.04205935E-02 -9.681E-07 -1.029E-06
:PTO012:      0   -2    0  6.72641959E-03  1.248E-06  1.072E-06
:PTO013:     -1   -1   -2  2.09277362E-02  5.658E-06  5.021E-06
:PTO014:     -2    0    0  6.70590458E-03  1.455E-06  1.310E-06
:PTO015:      0   -2   -1  5.68204414E-03  1.214E-06  1.237E-06
:PTO018:     -1   -2    0 -1.03084251E-02  3.956E-07  3.767E-07
:PTO019:     -2   -1    0  1.13180082E-02 -4.451E-07 -4.417E-07
:PTO021:     -1   -2   -1  1.17723514E-02 -6.234E-07 -6.266E-07

:ENE  : ********** TOTAL ENERGY IN Ry =      -292312.84411829

       TOTAL FORCE IN mRy/a.u. = |F|     Fx             Fy             Fz     with/without FOR in case.in2
:FOR001:   1.ATOM          0.000          0.000          0.000          0.000 partial forces
:FOR002:   2.ATOM          0.264         -0.203          0.169          0.000 partial forces
:FOR003:   3.ATOM         25.954         23.613        -10.771          0.000 partial forces
:FOR004:   4.ATOM         35.808        -24.127        -20.054        -17.261 partial forces
       TOTAL FORCE WITH RESPECT TO GLOBAL CARTESIAN COORDINATES:
:FCA001:   1.ATOM                         0.000          0.000          0.000 partial forces
:FCA002:   2.ATOM                        -0.203          0.169          0.000 partial forces
:FCA003:   3.ATOM                        23.613        -10.771          0.000 partial forces
:FCA004:   4.ATOM                       -24.127        -20.054        -17.261 partial forces
       TOTAL FORCE WITH RESPECT TO THE GLOBAL COORDINATE SYSTEM:
:FGL001:   1.ATOM                 0.000000000     0.000000000     0.000000000 partial forces
:FGL002:   2.ATOM                -0.203426206     0.169026511     0.000000000 partial forces
:FGL003:   3.ATOM                23.613106319   -10.771217804     0.000000000 partial forces
:FGL004:   4.ATOM               -24.127417429   -20.053627849   -17.261376792 partial forces
