
:LABEL1: Calculations in /home/cmueller/wien/FZU/src/perovskite/Ecore_5
:LABEL2: on cv036 at Fri Jun 21 06:17:11 PM CEST 2024
:LABEL3: using WIEN2k_19.1 (Release 25/6/2019) in /home/cmueller/WIENROOT
:LABEL4: using the command: run_lapw
 Flat Integration
 New Mode for Coulomb Integral
 Consistent 3/8+Simpson combinations
 Extension of core to zero
 LDM version in phi
 Fifth-order quadrature in outwin


            ---------
:ITE001:  1. ITERATION
            ---------

:NATO :    4 INDEPENDENT AND   20 TOTAL ATOMS IN UNITCELL
       SUBSTANCE: blebleble                                                   

       LATTICE                      = P   
:POT  : POTENTIAL OPTION EX_PBE EC_PBE VX_PBE VC_PBE
:LAT  : LATTICE CONSTANTS= 15.19415 15.66734 22.08372    1.571    1.571    1.571
:VOL  : UNIT CELL VOLUME =    5257.07306
       MODE OF CALCULATION IS       = RELA
       NON-SPINPOLARIZED CALCULATION
:IFFT  : FFT-parameters:  120  120  180 Factor: 2.00


   CONVERGENCE PARAMETER FOR PSEUDOCHARGE: NCON=  9
   MAXIMAL VALUE OF RMT(JATOM)*ABSK(NKK) : RK  =29.99804


:VKCOUL :  VK-COUL convergence: 0.423E-07
       ATOMNUMBER=  1 Pb         VCOUL-ZERO =  0.10897E+00
:EFG001:                        EFG         =     0.00590   *10**21  V / m**2
                               V20  TOT/SRF=     0.00113     0.00195
                               V22  TOT/SRF=    -0.00027    -0.00077
                               V22M TOT/SRF=    -0.00029    -0.00093
                               V21  TOT/SRF=     0.00242     0.00330
                               V21M TOT/SRF=    -0.00473    -0.00516

             -0.00092   -0.00029    0.00242       -0.00105    0.00000    0.00000
             -0.00029   -0.00038   -0.00473        0.00000    0.00590    0.00000
              0.00242   -0.00473    0.00130        0.00000    0.00000   -0.00485

         MAIN DIRECTIONS OF THE EFG   1.0000  0.3879 -0.5274
                                      0.5164 -0.7730  1.0000
                                      0.0112  1.0000  0.9776
:ANG001:  ANGLE WITH OLD X-AXIS =        33.2

:ETA001:                         ASYMM. ETA =     0.64411


       ATOMNUMBER=  2 Cs         VCOUL-ZERO = -0.49697E-01
:EFG002:                        EFG         =     0.00079   *10**21  V / m**2
                               V20  TOT/SRF=    -0.00038    -0.00033
                               V22  TOT/SRF=    -0.00031    -0.00059
                               V22M TOT/SRF=    -0.00049    -0.00143
                               V21  TOT/SRF=     0.00000     0.00000
                               V21M TOT/SRF=     0.00000     0.00000

             -0.00009   -0.00049    0.00000       -0.00036    0.00000    0.00000
             -0.00049    0.00053    0.00000        0.00000    0.00079    0.00000
              0.00000    0.00000   -0.00043        0.00000    0.00000   -0.00043

         MAIN DIRECTIONS OF THE EFG   1.0000 -0.5459  0.0000
                                      0.5459  1.0000  0.0000
                                      0.0000  0.0000  1.0000
:ANG002:  ANGLE WITH OLD X-AXIS =        28.6

:ETA002:                         ASYMM. ETA =     0.09356


       ATOMNUMBER=  3 Br         VCOUL-ZERO =  0.28031E+00
:EFG003:                        EFG         =    -0.02231   *10**21  V / m**2
                               V20  TOT/SRF=     0.01925     0.05961
                               V22  TOT/SRF=     0.00410     0.00562
                               V22M TOT/SRF=    -0.01042    -0.01150
                               V21  TOT/SRF=     0.00000     0.00000
                               V21M TOT/SRF=     0.00000     0.00000

             -0.00702   -0.01042    0.00000        0.00008    0.00000    0.00000
             -0.01042   -0.01521    0.00000        0.00000   -0.02231    0.00000
              0.00000    0.00000    0.02223        0.00000    0.00000    0.02223

         MAIN DIRECTIONS OF THE EFG   1.0000  0.6813  0.0000
                                     -0.6813  1.0000  0.0000
                                      0.0000  0.0000  1.0000
:ANG003:  ANGLE WITH OLD X-AXIS =        34.3

:ETA003:                         ASYMM. ETA =     0.99277


       ATOMNUMBER=  4 Br         VCOUL-ZERO =  0.28025E+00
:EFG004:                        EFG         =     0.02212   *10**21  V / m**2
                               V20  TOT/SRF=    -0.00625    -0.02554
                               V22  TOT/SRF=    -0.00319    -0.00440
                               V22M TOT/SRF=    -0.01622    -0.04902
                               V21  TOT/SRF=    -0.00456    -0.00425
                               V21M TOT/SRF=     0.00611     0.00781

              0.00042   -0.01622   -0.00456        0.02212    0.00000    0.00000
             -0.01622    0.00679    0.00611        0.00000   -0.01296    0.00000
             -0.00456    0.00611   -0.00722        0.00000    0.00000   -0.00916

         MAIN DIRECTIONS OF THE EFG  -0.8182  1.0000  0.2387
                                      1.0000  0.8580 -0.1399
                                      0.3353 -0.1186  1.0000
:ANG004:  ANGLE WITH OLD X-AXIS =       128.5

:ETA004:                         ASYMM. ETA =     0.17181


     HELLMANN-FEYNMAN-FORCE IN mRy/a.u. = |F|  Fx       Fy             Fz
:FHF001:   1.ATOM      0.000000000000      0.000000000000      0.000000000000      0.000000000000

     HELLMANN-FEYNMAN-FORCE IN mRy/a.u. = |F|  Fx       Fy             Fz
:FHF002:   2.ATOM     13.212661606233     13.207363767740      0.374124347533      0.000000000000

     HELLMANN-FEYNMAN-FORCE IN mRy/a.u. = |F|  Fx       Fy             Fz
:FHF003:   3.ATOM    220.113963888524    -93.045637347661   -199.480992751907      0.000000000000

     HELLMANN-FEYNMAN-FORCE IN mRy/a.u. = |F|  Fx       Fy             Fz
:FHF004:   4.ATOM    174.202709980683     55.580955909951    107.026757789216    125.708450876934

:FIT001: LUSE= 13 SIGMA OF V-XC FIT FOR ATOM  1  0.7571362E-03
:FIT001: LUSE= 13 SIGMA OF V-XC FIT FOR ATOM  1  0.7571362E-03
:FIT002: LUSE= 13 SIGMA OF V-XC FIT FOR ATOM  2  0.1645418E-04
:FIT002: LUSE= 13 SIGMA OF V-XC FIT FOR ATOM  2  0.1645418E-04
:FIT003: LUSE= 13 SIGMA OF V-XC FIT FOR ATOM  3  0.7450639E-03
:FIT003: LUSE= 13 SIGMA OF V-XC FIT FOR ATOM  3  0.7450639E-03
:FIT004: LUSE= 13 SIGMA OF V-XC FIT FOR ATOM  4  0.6626845E-03
:FIT004: LUSE= 13 SIGMA OF V-XC FIT FOR ATOM  4  0.6626845E-03
:DEN  : DENSITY INTEGRAL  =       -114061.79163689   (Ry)
       ELS_POTENTIAL_AT Z=0 and Z=0.5:  -0.57564  -0.57564
       ELS_POTENTIAL_AT Y=0 and Y=0.5:  -0.47943  -0.47943
:VZERO:v0,v0c,v0x  -1.32226  -0.57564  -0.74662 v5,v5c,v5x  -1.32226  -0.57564  -0.74662
:VZERY:v0,v0c,v0x  -1.13920  -0.47943  -0.65976 v5,v5c,v5x  -1.13920  -0.47943  -0.65976
:VZERX:v0,v0c,v0x  -1.13400  -0.48141  -0.65258 v5,v5c,v5x  -1.13400  -0.48141  -0.65258
:LMAX-WF:   10   Non-Spherical LMAX:   4

          ATOMIC SPHERE DEPENDENT PARAMETERS FOR ATOM  Pb        
:e__0001: OVERALL ENERGY PARAMETER IS    0.3000
          OVERALL BASIS SET ON ATOM IS LAPW
:E2_0001: E( 2)=    0.7000
             APW+lo
:E2_0001: E( 2)=   -0.9369   E(BOTTOM)=   -1.175   E(TOP)=   -0.699  2  3   123
             LOCAL ORBITAL
:E0_0001: E( 0)=    0.3000
             APW+lo
:E1_0001: E( 1)=    0.3000
             APW+lo

          ATOMIC SPHERE DEPENDENT PARAMETERS FOR ATOM  Cs        
:e__0002: OVERALL ENERGY PARAMETER IS    0.3000
          OVERALL BASIS SET ON ATOM IS LAPW
:E0_0002: E( 0)=    0.7000
             APW+lo
:E0_0002: E( 0)=   -1.3662   E(BOTTOM)=   -2.049   E(TOP)=   -0.683  4  5   169
             LOCAL ORBITAL
:E1_0002: E( 1)=    0.7000
             APW+lo
:E1_0002: E( 1)=   -0.1934   E(BOTTOM)=   -1.166   E(TOP)=    0.779  3  4   199
             LOCAL ORBITAL

          ATOMIC SPHERE DEPENDENT PARAMETERS FOR ATOM  Br        
:e__0003: OVERALL ENERGY PARAMETER IS    0.3000
          OVERALL BASIS SET ON ATOM IS LAPW
:E2_0003: E( 2)=    0.3000
             APW+lo
:E2_0003: E( 2)=   -4.3424   E(BOTTOM)=   -4.346   E(TOP)=   -4.339  1  1   115
             LOCAL ORBITAL
:E0_0003: E( 0)=    0.7000
             APW+lo
:E0_0003: E( 0)=   -0.9471   E(BOTTOM)=   -1.512   E(TOP)=   -0.382  3  4   158
             LOCAL ORBITAL
:E1_0003: E( 1)=    0.3000
             APW+lo

          ATOMIC SPHERE DEPENDENT PARAMETERS FOR ATOM  Br        
:e__0004: OVERALL ENERGY PARAMETER IS    0.3000
          OVERALL BASIS SET ON ATOM IS LAPW
:E2_0004: E( 2)=    0.3000
             APW+lo
:E2_0004: E( 2)=   -4.3426   E(BOTTOM)=   -4.346   E(TOP)=   -4.339  1  1   119
             LOCAL ORBITAL
:E0_0004: E( 0)=    0.7000
             APW+lo
:E0_0004: E( 0)=   -0.9473   E(BOTTOM)=   -1.512   E(TOP)=   -0.382  3  4   153
             LOCAL ORBITAL
:E1_0004: E( 1)=    0.3000
             APW+lo

       K=   0.04545   0.04545   0.07143            1
:RKM  : MATRIX SIZE  2199LOs: 268  RKM= 7.00  WEIGHT= 8.00  PGR:    
       EIGENVALUES ARE:
:EIG00001:      -4.3422805   -4.3422734   -4.3422700   -4.3422676   -4.3422639
:EIG00006:      -4.3422634   -4.3422583   -4.3422518   -4.3421712   -4.3421667
:EIG00011:      -4.3421648   -4.3421592   -4.3420071   -4.3420029   -4.3419980
:EIG00016:      -4.3419929   -4.3419914   -4.3419892   -4.3419827   -4.3419722
:EIG00021:      -4.3419523   -4.3419424   -4.3419335   -4.3419293   -4.3419267
:EIG00026:      -4.3419254   -4.3419246   -4.3419164   -4.3419144   -4.3419105
:EIG00031:      -4.3419046   -4.3419009   -4.3416393   -4.3416351   -4.3416287
:EIG00036:      -4.3416248   -4.3414987   -4.3414977   -4.3414901   -4.3414897
:EIG00041:      -4.3414830   -4.3414798   -4.3414764   -4.3414702   -4.3414587
:EIG00046:      -4.3414518   -4.3414436   -4.3414404   -4.3414396   -4.3414367
 
:EIG00051:      -4.3414300   -4.3414289   -4.3413177   -4.3413106   -4.3413076
:EIG00056:      -4.3413049   -4.3412454   -4.3412437   -4.3412393   -4.3412329
:EIG00061:      -1.3724537   -1.3722886   -1.3721046   -1.3720007   -0.9680617
:EIG00066:      -0.9679006   -0.9678187   -0.9675345   -0.9674588   -0.9663329
:EIG00071:      -0.9486585   -0.9484187   -0.9481213   -0.9479876   -0.9476231
:EIG00076:      -0.9472020   -0.9032481   -0.9031142   -0.9026786   -0.8964849
:EIG00081:      -0.8963403   -0.8962805   -0.8962071   -0.8961298   -0.8960671
:EIG00086:      -0.8956990   -0.8956642   -0.8954998   -0.8954542   -0.8953068
:EIG00091:      -0.8951607   -0.8928367   -0.8812472   -0.8701322   -0.8698375
:EIG00096:      -0.8692986   -0.4146072   -0.4122527   -0.4118073   -0.4104794
 
:EIG00101:      -0.4096946   -0.4093078   -0.4087994   -0.4078126   -0.4076200
:EIG00106:      -0.4073944   -0.4069175   -0.4062008   -0.4054463   -0.3660111
:EIG00111:      -0.3254564   -0.2640837   -0.1484015   -0.1475262   -0.1445347
:EIG00116:      -0.1404449   -0.1386107   -0.1296396   -0.0987640   -0.0810628
:EIG00121:      -0.0780707   -0.0765681   -0.0751821   -0.0680653   -0.0592590
:EIG00126:      -0.0537726   -0.0514981   -0.0489450   -0.0461448   -0.0438067
:EIG00131:      -0.0425790   -0.0406288   -0.0400273   -0.0386970   -0.0321090
:EIG00136:      -0.0272918   -0.0267992   -0.0263416   -0.0248642   -0.0234630
:EIG00141:      -0.0222496   -0.0199757   -0.0183676   -0.0181549   -0.0002345
:EIG00146:       0.0561538    0.1047891    0.1584439    0.3395955    0.3433267
 
:EIG00151:       0.3470976    0.3720668    0.3853314    0.4029202    0.4041334
:EIG00156:       0.4832500    0.4889263    0.4964110    0.5011849    0.5308144
:EIG00161:       0.5320128    0.5365155    0.5449974    0.5485501    0.5499933
:EIG00166:       0.5524532    0.5576955    0.5589596    0.5743997    0.5779666
:EIG00171:       0.5782375    0.5852835    0.5996699    0.6041289    0.6071981
:EIG00176:       0.6139170    0.6146577    0.6197112    0.6221924    0.6306620
:EIG00181:       0.6368547    0.6416344    0.6496280    0.6579188    0.6599795
:EIG00186:       0.6763020    0.6827271    0.6913693    0.6988867    0.7030024
:EIG00191:       0.7162072    0.7330200    0.7432539    0.7502354    0.7576496
:EIG00196:       0.7606448    0.7628072    0.7681658    0.7775172    0.7873368
 
:EIG00201:       0.7883451    0.7928106    0.7958847    0.8338892    0.8525136
:EIG00206:       0.8580704    0.8610763    0.8656432    0.8667481    0.8698381
:EIG00211:       0.8734536    0.8832999    0.8978209    0.8997441    0.9102024
:EIG00216:       0.9256990    0.9383668    0.9456547    0.9532918    0.9579549
:EIG00221:       0.9597387    0.9696143    0.9800469    0.9860110    0.9972626
:EIG00226:       0.9993900    1.0100617    1.0139440    1.0151647    1.0183437
:EIG00231:       1.0269025    1.0289203    1.0419502    1.0582365    1.0658436
:EIG00236:       1.0733033    1.0789758    1.0864589    1.0883238    1.0914526
:EIG00241:       1.0949868    1.1000960    1.1025210    1.1055222    1.1096280
:EIG00246:       1.1139670    1.1189926    1.1261647    1.1272933    1.1335066
 
:EIG00251:       1.1365141    1.1418861    1.1475610    1.1509366    1.1563382
:EIG00256:       1.1621951    1.1655929    1.1704166    1.1718737    1.1736191
:EIG00261:       1.1792634    1.1832405    1.1845710    1.1881615    1.1940753
:EIG00266:       1.1954553    1.2007558    1.2048117    1.2147977    1.2212352
:EIG00271:       1.2240670    1.2269137    1.2306949    1.2355049    1.2404282
:EIG00276:       1.2410921    1.2491566    1.2509858    1.2557987    1.2621002
:EIG00281:       1.2696420    1.2751015    1.2815094    1.2845086    1.2887132
:EIG00286:       1.2958365    1.3097531    1.3131126    1.3162309    1.3177197
:EIG00291:       1.3242628    1.3290279    1.3408806    1.3422325    1.3578257
:EIG00296:       1.3618287    1.3694452    1.3715920    1.3795469    1.3828309
 
:EIG00301:       1.3877434    1.3904158    1.4021488    1.4079208    1.4090946
:EIG00306:       1.4181834    1.4223754    1.4289331    1.4329580    1.4355901
:EIG00311:       1.4429399    1.4456983    1.4520873    1.4557632    1.4655000
:EIG00316:       1.4673040    1.4708353    1.4730448    1.4779747    1.4814724
:EIG00321:       1.4867582    1.4908556    1.4981467    1.5000861    1.5019868
:EIG00326:       1.5097387    1.5152576    1.5189290    1.5233195    1.5273453
:EIG00331:       1.5283688    1.5315846    1.5420650    1.5447725    1.5526520
:EIG00336:       1.5622606    1.5645829    1.5757609    1.5815967    1.5854087
:EIG00341:       1.5902127    1.5959403    1.6098370    1.6124775    1.6239017
:EIG00346:       1.6273780    1.6365902    1.6374652    1.6434514    1.6552047
 
:EIG00351:       1.6582939    1.6599276    1.6650721    1.6745361    1.6780477
:EIG00356:       1.6790474    1.6792292    1.6891561    1.6966666    1.7102242
:EIG00361:       1.7109145    1.7148930    1.7209539    1.7250511    1.7284889
:EIG00366:       1.7328766    1.7365024    1.7413634    1.7468527    1.7491655
:EIG00371:       1.7525555    1.7573930    1.7632303    1.7653464    1.7714675
:EIG00376:       1.7748261    1.7877262    1.7908650    1.7936241    1.7968034
:EIG00381:       1.8064906    1.8100527    1.8170778    1.8218894    1.8228444
:EIG00386:       1.8299017    1.8310622    1.8340105    1.8378409    1.8423730
:EIG00391:       1.8450607    1.8495183    1.8560098    1.8657986    1.8776119
:EIG00396:       1.8838046    1.8864173    1.8892526    1.9004095    1.9011263
 
:EIG00401:       1.9038194    1.9100328    1.9155948    1.9189019    1.9236230
:EIG00406:       1.9286827    1.9347767    1.9388247    1.9428637    1.9471593
:EIG00411:       1.9535976    1.9591632    1.9640503    1.9672918    1.9747028
:EIG00416:       1.9815294    1.9851248    1.9901979    1.9979036
       ********************************************************

:KPT   :      NUMBER OF K-POINTS:   144
       Insulator, EF-inconsistency corrected
:GAP (global)   :  0.181152 Ry =     2.465 eV (accurate value if proper k-mesh)
         Bandranges (emin - emax) and occupancy:
:BAN00138: 138   -0.036461   -0.025120  2.00000000
:BAN00139: 139   -0.033425   -0.024864  2.00000000
:BAN00140: 140   -0.033425   -0.023463  2.00000000
:BAN00141: 141   -0.029095   -0.021507  2.00000000
:BAN00142: 142   -0.028254   -0.019444  2.00000000
:BAN00143: 143   -0.023372   -0.013911  2.00000000
:BAN00144: 144   -0.023313   -0.013911  2.00000000
:BAN00145: 145   -0.000234    0.067224  2.00000000
:BAN00146: 146    0.010538    0.068991  2.00000000
:BAN00147: 147    0.040949    0.120536  2.00000000
:BAN00148: 148    0.040949    0.158444  2.00000000
:BAN00149: 149    0.339596    0.441303  0.00000000
:BAN00150: 150    0.343327    0.441303  0.00000000
:BAN00151: 151    0.347098    0.447710  0.00000000
:BAN00152: 152    0.364970    0.447710  0.00000000
:BAN00153: 153    0.381555    0.465498  0.00000000
        Energy to separate low and high energystates:   -0.46461


:NOE  : NUMBER OF ELECTRONS          =  296.000

:FER  : F E R M I - ENERGY(TETRAH.M.)=   0.1584439160
:GMA  : POTENTIAL AND CHARGE CUT-OFF  12.00 Ry**.5

:POS001: ATOM   -1 X,Y,Z = 0.50000 0.50000 0.50000  MULT= 4  ZZ= 82.000  Pb        

       LMMAX 28
       LM=   0 0  2 0  2 1 -2 1  2 2 -2 2  4 0  4 1 -4 1  4 2 -4 2  4 3 -4 3  4 4 -4 4  6 0  6 1
        -6 1  6 2 -6 2  6 3 -6 3  6 4 -6 4  6 5 -6 5  6 6 -6 6

:CHA001: TOTAL VALENCE CHARGE INSIDE SPHERE   1 =  11.3103    (RMT=  2.5000 )
:PCS001: PARTIAL CHARGES SPHERE =  1 S,P,D,F,PX,PY,PZ,D-Z2,D-X2Y2,D-XY,D-XZ,D-YZ 
:QTL001: 1.3301 0.2629 9.7026 0.0124 0.0868 0.0874 0.0887 1.9483 1.9366 1.9470 1.9358 1.9350
        Q-s-low E-s-low   Q-p-low E-p-low   Q-d-low E-d-low   Q-f-low E-f-low
:EPL001:  0.0177 -0.9545    0.0087 -0.9464    9.6270 -0.8978    0.0010 -0.9545
        Q-s-hi  E-s-hi    Q-p-hi  E-p-hi    Q-d-hi  E-d-hi    Q-f-hi  E-f-hi 
:EPH001:  1.3124 -0.2171    0.2542 -0.0907    0.0756 -0.0566    0.0114 -0.0583

                      QXX         QXY         QYY         QZZ       UP TO R
:VZZ001:             0.65398     0.65306     0.16075    -0.81474       2.500

:POS002: ATOM   -2 X,Y,Z = 0.48491 0.94655 0.25000  MULT= 4  ZZ= 55.000  Cs        

       LMMAX 28
       LM=   0 0  1 1 -1 1  2 0  2 2 -2 2  3 1 -3 1  3 3 -3 3  4 0  4 2 -4 2  4 4 -4 4  5 1 -5 1
         5 3 -5 3  5 5 -5 5  6 0  6 2 -6 2  6 4 -6 4  6 6 -6 6

:CHA002: TOTAL VALENCE CHARGE INSIDE SPHERE   2 =   6.3002    (RMT=  2.5000 )
:PCS002: PARTIAL CHARGES SPHERE =  2 S,P,D,F,PX,PY,PZ,D-Z2,D-X2Y2,D-XY,D-XZ,D-YZ 
:QTL002: 1.7960 4.4875 0.0148 0.0018 1.4951 1.4960 1.4964 0.0025 0.0033 0.0022 0.0030 0.0037
        Q-s-low E-s-low   Q-p-low E-p-low   Q-d-low E-d-low   Q-f-low E-f-low
:EPL002:  1.7865 -1.3718    0.0022 -0.9453    0.0002 -0.9479    0.0001 -0.9865
        Q-s-hi  E-s-hi    Q-p-hi  E-p-hi    Q-d-hi  E-d-hi    Q-f-hi  E-f-hi 
:EPH002:  0.0095 -0.0770    4.4853 -0.3968    0.0146 -0.0520    0.0017 -0.0450

                      QXX         QXY         QYY         QZZ       UP TO R
:VZZ002:             0.54857     1.59718    -0.12004    -0.42853       2.500

:POS003: ATOM   -3 X,Y,Z = 0.56000 0.50750 0.25000  MULT= 4  ZZ= 35.000  Br        

       LMMAX 28
       LM=   0 0  1 1 -1 1  2 0  2 2 -2 2  3 1 -3 1  3 3 -3 3  4 0  4 2 -4 2  4 4 -4 4  5 1 -5 1
         5 3 -5 3  5 5 -5 5  6 0  6 2 -6 2  6 4 -6 4  6 6 -6 6

:CHA003: TOTAL VALENCE CHARGE INSIDE SPHERE   3 =  15.9553    (RMT=  2.5000 )
:PCS003: PARTIAL CHARGES SPHERE =  3 S,P,D,F,PX,PY,PZ,D-Z2,D-X2Y2,D-XY,D-XZ,D-YZ 
:QTL003: 1.7970 4.141310.0141 0.0024 1.3989 1.4027 1.3397 2.0109 2.0004 2.0002 2.0017 2.0009
        Q-s-low E-s-low   Q-p-low E-p-low   Q-d-low E-d-low   Q-f-low E-f-low
:EPL003:  1.7662 -0.9479    0.0063 -0.9019   10.0001 -4.3411    0.0006 -0.9071
        Q-s-hi  E-s-hi    Q-p-hi  E-p-hi    Q-d-hi  E-d-hi    Q-f-hi  E-f-hi 
:EPH003:  0.0308 -0.2384    4.1350 -0.0589    0.0140 -0.1100    0.0018 -0.1584

                      QXX         QXY         QYY         QZZ       UP TO R
:VZZ003:            -5.13987    -0.36308    -6.35708    11.49695       2.500

:POS004: ATOM   -4 X,Y,Z = 0.19962 0.70227 0.46752  MULT= 8  ZZ= 35.000  Br        

       LMMAX 49

:CHA004: TOTAL VALENCE CHARGE INSIDE SPHERE   4 =  15.9560    (RMT=  2.5000 )
:PCS004: PARTIAL CHARGES SPHERE =  4 S,P,D,F,PX,PY,PZ,D-Z2,D-X2Y2,D-XY,D-XZ,D-YZ 
:QTL004: 1.7968 4.142710.0137 0.0024 1.3729 1.3699 1.3999 2.0027 2.0019 2.0073 2.0008 2.0009
        Q-s-low E-s-low   Q-p-low E-p-low   Q-d-low E-d-low   Q-f-low E-f-low
:EPL004:  1.7666 -0.9479    0.0061 -0.9008   10.0000 -4.3413    0.0006 -0.9083
        Q-s-hi  E-s-hi    Q-p-hi  E-p-hi    Q-d-hi  E-d-hi    Q-f-hi  E-f-hi 
:EPH004:  0.0301 -0.2387    4.1366 -0.0590    0.0136 -0.1123    0.0018 -0.1531

                      QXX         QXY         QYY         QZZ       UP TO R
:VZZ004:             2.16551    -8.20728     3.11564    -5.28115       2.500

:CHA  : TOTAL VALENCE CHARGE INSIDE UNIT CELL =     296.000000

:SUM  : SUM OF EIGENVALUES =        -606.810407570


        1.ATOM      Pb                   19 CORE STATES
:1S 001: 1S               -6465.856478861 Ry
:2S 001: 2S               -1154.903306790 Ry
:2PP001: 2P*              -1108.893817011 Ry
:2P 001: 2P                -947.935173972 Ry
:3S 001: 3S                -276.693360124 Ry
:3PP001: 3P*               -255.968010997 Ry
:3P 001: 3P                -220.054280836 Ry
:3DD001: 3D*               -186.062537820 Ry
:3D 001: 3D                -178.422247597 Ry
:4S 001: 4S                 -62.128808944 Ry
:4PP001: 4P*                -53.163996678 Ry
:4P 001: 4P                 -44.373404565 Ry
:4DD001: 4D*                -29.792605091 Ry
:4D 001: 4D                 -28.152442018 Ry
:5S 001: 5S                  -9.904885030 Ry
:5PP001: 5P*                 -6.849845520 Ry
:5P 001: 5P                  -5.208607376 Ry
:4FF001: 4F*                 -9.280070916 Ry
:4F 001: 4F                  -8.910355399 Ry

        2.ATOM      Cs                   14 CORE STATES
       CORE-FORCE in mRy/a.u. = |F|      Fx             Fy             Fz
:FCO002:   2.ATOM     11.492660024605    -11.477395849935     -0.592130851298      0.000000000000

:1S 002: 1S               -2628.589836052 Ry
:2S 002: 2S                -411.663315835 Ry
:2PP002: 2P*               -387.226059542 Ry
:2P 002: 2P                -361.334303543 Ry
:3S 002: 3S                 -85.113558932 Ry
:3PP002: 3P*                -74.910137637 Ry
:3P 002: 3P                 -69.948285401 Ry
:3DD002: 3D*                -52.028973622 Ry
:3D 002: 3D                 -50.975649671 Ry
:4S 002: 4S                 -15.579493186 Ry
:4PP002: 4P*                -11.918652724 Ry
:4P 002: 4P                 -10.906723180 Ry
:4DD002: 4D*                 -4.956990772 Ry
:4D 002: 4D                  -4.789097791 Ry

        3.ATOM      Br                    7 CORE STATES
       CORE-FORCE in mRy/a.u. = |F|      Fx             Fy             Fz
:FCO003:   3.ATOM    113.798211866841     46.855090037281    103.704549377974      0.000000000000

:1S 003: 1S                -977.960077086 Ry
:2S 003: 2S                -126.757186875 Ry
:2PP003: 2P*               -114.087264181 Ry
:2P 003: 2P                -110.595877631 Ry
:3S 003: 3S                 -16.930995736 Ry
:3PP003: 3P*                -12.526450390 Ry
:3P 003: 3P                 -12.024239283 Ry

        4.ATOM      Br                    7 CORE STATES
       CORE-FORCE in mRy/a.u. = |F|      Fx             Fy             Fz
:FCO004:   4.ATOM     88.726814992281    -27.631481055139    -54.539348517191    -64.299365601025

:1S 004: 1S                -977.960247445 Ry
:2S 004: 2S                -126.757357083 Ry
:2PP004: 2P*               -114.087434426 Ry
:2P 004: 2P                -110.596047870 Ry
:3S 004: 3S                 -16.931164448 Ry
:3PP004: 3P*                -12.526618974 Ry
:3P 004: 3P                 -12.024407776 Ry
:CINT001 Core Integral Atom   1   67.995039
:CINT002 Core Integral Atom   2   45.995267
:CINT003 Core Integral Atom   3   17.999989
:CINT004 Core Integral Atom   4   17.999989

       DENSITY AT NUCLEUS
        JATOM        VALENCE       SEMI-CORE          CORE           TOTAL
:RTO001:   1     1927.879342        0.000000  9911349.920423  9913277.799765
:RTO002:   2      320.878648        0.000000   438170.878700   438491.757348
:RTO003:   3       73.645535        0.000000    45839.135817    45912.781352
:RTO004:   4       73.629456        0.000000    45839.135906    45912.765362
     
       CHARGES OF NEW CHARGE DENSITY
:NTO   : INTERSTITIAL CHARGE =    34.088568
:NPC   : PW Pseudocharge     =   102.989823
:NTO001: CHARGE SPHERE  1    =    79.305362
:NTO002: CHARGE SPHERE  2    =    52.295495
:NTO003: CHARGE SPHERE  3    =    33.955306
:NTO004: CHARGE SPHERE  4    =    33.955980

:NEC01: NUCLEAR AND ELECTRONIC CHARGE    968.00000   967.96106
     
       CHARGES OF OLD CHARGE DENSITY
:OTO   : INTERSTITIAL CHARGE =    36.640775
:OPC   : PW Pseudocharge     =   131.400754
:OTO001: CHARGE SPHERE  1    =    79.809567
:OTO002: CHARGE SPHERE  2    =    52.317982
:OTO003: CHARGE SPHERE  3    =    33.573161
:OTO004: CHARGE SPHERE  4    =    33.572536

:NEC02: NUCLEAR AND ELECTRONIC CHARGE    968.00000   968.02391
     
       CONVERGENCE TEST
:DTO001: DIFFERENCE IN SPHERE  1 =  0.2619708
:DTO002: DIFFERENCE IN SPHERE  2 =  0.0438309
:DTO003: DIFFERENCE IN SPHERE  3 =  0.1900929
:DTO004: DIFFERENCE IN SPHERE  4 =  0.1907613

:DIS  :  CHARGE DISTANCE       ( 0.2619708 for atom    1 spin 1)      0.1754835
 PW Mixed is         2247
 
******************************************************
* MULTISECANT MIXING VER9 RELEASE 10.4.0              *
* Standard Mode with controls                        *
* Fixed density scale                                *
* Regularization       1.000E-04                     *
* Trust Upper Limit    5.000E+00                     *
* Max Number of Memory Steps    8                    *
******************************************************
 
:PWTMP   3.9481E+03  2.5000E+03  5.2571E+03
:PLANE:  PW TOTAL     10.8628 DISTAN   3.50E+00  3.22E+01 %
:CHARG:  CLM/ATOM   1115.9684 DISTAN   2.14E-01  1.92E-02 %
 
Step History
        DMIX         DMIXT        Red     Pred      Trust     Lambda    MagRel    MagAbs     Beta
  1   3.5000E-02   3.5000E-02 -1.00E+00  1.00E+00 -1.00E+01  1.00E+00  3.50E-02  3.50E-02  1.00E+00
:INFO :  Note, Pratt in use
:TRUST:  Step 3.75E-02  Charge 7.50E-02 (e) CTO  4.43E-01 (e) PW  6.21E-01 (e)
:DIRM :  MEMORY  0/ 8 SCALE   1.000
Performing Pseudo Compensation
Final Pseudo Compensation Rescaling     1.00017E+00
:MIX  :   PRATT  REGULARIZATION:  1.00E-04 GREED: 0.02500                  
     
       CHARGES OF MIXED CHARGE DENSITY
:CTO   : INTERSTITIAL CHARGE =    36.554632
:CPC   : PW Pseudocharge     =   113.502397
:CTO001: CHARGE SPHERE  1    =    79.796962
:CTO002: CHARGE SPHERE  2    =    52.317420
:CTO003: CHARGE SPHERE  3    =    33.582715
:CTO004: CHARGE SPHERE  4    =    33.582123

:NEC03: NUCLEAR AND ELECTRONIC CHARGE    968.00000   968.00000

PW CHANGE     H    K    L      Current       Change    Residue
:PTO001:      0    0    0  2.85438357E-02 -3.400E-03 -5.839E-03
:PTO006:     -1    0   -1 -2.51294799E-03  2.720E-04  4.025E-04
:PTO007:      0    0   -2  3.56062923E-03 -1.897E-03 -3.308E-03
:PTO008:     -1   -1    0  6.77755089E-03 -3.925E-03 -6.701E-03
:PTO009:     -1   -1   -1 -1.09664439E-02  1.571E-03  2.247E-03
:PTO012:      0   -2    0  7.99410388E-03 -3.052E-03 -4.759E-03
:PTO013:     -1   -1   -2  2.57556487E-02 -1.158E-02 -1.860E-02
:PTO014:     -2    0    0  7.94191087E-03 -3.107E-03 -4.827E-03
:PTO015:      0   -2   -1  6.08952211E-03 -1.133E-03 -1.791E-03
:PTO018:     -1   -2    0 -1.10048782E-02  1.239E-03  1.553E-03
:PTO019:     -2   -1    0  1.21067000E-02 -1.394E-03 -1.755E-03
:PTO021:     -1   -2   -1  1.26350640E-02 -1.477E-03 -1.863E-03

:ENE  : ********** TOTAL ENERGY IN Ry =      -292313.21770227

       TOTAL FORCE IN mRy/a.u. = |F|     Fx             Fy             Fz     with/without FOR in case.in2
:FOR001:   1.ATOM          0.000          0.000          0.000          0.000 partial forces
:FOR002:   2.ATOM          1.744          1.730         -0.218          0.000 partial forces
:FOR003:   3.ATOM        106.333        -46.191        -95.776          0.000 partial forces
:FOR004:   4.ATOM         85.482         27.949         52.487         61.409 partial forces
       TOTAL FORCE WITH RESPECT TO GLOBAL CARTESIAN COORDINATES:
:FCA001:   1.ATOM                         0.000          0.000          0.000 partial forces
:FCA002:   2.ATOM                         1.730         -0.218          0.000 partial forces
:FCA003:   3.ATOM                       -46.191        -95.776          0.000 partial forces
:FCA004:   4.ATOM                        27.949         52.487         61.409 partial forces
       TOTAL FORCE WITH RESPECT TO THE GLOBAL COORDINATE SYSTEM:
:FGL001:   1.ATOM                 0.000000000     0.000000000     0.000000000 partial forces
:FGL002:   2.ATOM                 1.729967918    -0.218006504     0.000000000 partial forces
:FGL003:   3.ATOM               -46.190547310   -95.776443374     0.000000000 partial forces
:FGL004:   4.ATOM                27.949474855    52.487409272    61.409085276 partial forces
 Flat Integration
 New Mode for Coulomb Integral
 Consistent 3/8+Simpson combinations
 Extension of core to zero
 LDM version in phi
 Fifth-order quadrature in outwin


            ---------
:ITE002:  2. ITERATION
            ---------

:NATO :    4 INDEPENDENT AND   20 TOTAL ATOMS IN UNITCELL
       SUBSTANCE: blebleble                                                   

       LATTICE                      = P   
:POT  : POTENTIAL OPTION EX_PBE EC_PBE VX_PBE VC_PBE
:LAT  : LATTICE CONSTANTS= 15.19415 15.66734 22.08372    1.571    1.571    1.571
:VOL  : UNIT CELL VOLUME =    5257.07306
       MODE OF CALCULATION IS       = RELA
       NON-SPINPOLARIZED CALCULATION
:IFFT  : FFT-parameters:  120  120  180 Factor: 2.00


   CONVERGENCE PARAMETER FOR PSEUDOCHARGE: NCON=  9
   MAXIMAL VALUE OF RMT(JATOM)*ABSK(NKK) : RK  =29.99804


:VKCOUL :  VK-COUL convergence: 0.233E-08
       ATOMNUMBER=  1 Pb         VCOUL-ZERO =  0.95740E-01
:EFG001:                        EFG         =     0.02832   *10**21  V / m**2
                               V20  TOT/SRF=    -0.01647     0.00190
                               V22  TOT/SRF=     0.00590    -0.00072
                               V22M TOT/SRF=     0.01604    -0.00085
                               V21  TOT/SRF=    -0.00657     0.00319
                               V21M TOT/SRF=    -0.00633    -0.00511

              0.01541    0.01604   -0.00657        0.02832    0.00000    0.00000
              0.01604    0.00361   -0.00633        0.00000   -0.00743    0.00000
             -0.00657   -0.00633   -0.01902        0.00000    0.00000   -0.02088

         MAIN DIRECTIONS OF THE EFG   1.0000 -0.7391  0.0938
                                      0.7092  1.0000  0.1971
                                     -0.2336 -0.1278  1.0000
:ANG001:  ANGLE WITH OLD X-AXIS =        36.7

:ETA001:                         ASYMM. ETA =     0.47515


       ATOMNUMBER=  2 Cs         VCOUL-ZERO = -0.57720E-01
:EFG002:                        EFG         =     0.04614   *10**21  V / m**2
                               V20  TOT/SRF=    -0.00974    -0.00042
                               V22  TOT/SRF=     0.00809    -0.00052
                               V22M TOT/SRF=     0.03970    -0.00110
                               V21  TOT/SRF=     0.00000     0.00000
                               V21M TOT/SRF=     0.00000     0.00000

              0.01371    0.03970    0.00000        0.04614    0.00000    0.00000
              0.03970   -0.00247    0.00000        0.00000   -0.03489    0.00000
              0.00000    0.00000   -0.01125        0.00000    0.00000   -0.01125

         MAIN DIRECTIONS OF THE EFG   1.0000 -0.8167  0.0000
                                      0.8167  1.0000  0.0000
                                      0.0000  0.0000  1.0000
:ANG002:  ANGLE WITH OLD X-AXIS =        39.2

:ETA002:                         ASYMM. ETA =     0.51242


       ATOMNUMBER=  3 Br         VCOUL-ZERO =  0.27401E+00
:EFG003:                        EFG         =     0.31480   *10**21  V / m**2
                               V20  TOT/SRF=     0.27263     0.06292
                               V22  TOT/SRF=     0.01944     0.00570
                               V22M TOT/SRF=    -0.01946    -0.01138
                               V21  TOT/SRF=     0.00000     0.00000
                               V21M TOT/SRF=     0.00000     0.00000

             -0.13796   -0.01946    0.00000       -0.12990    0.00000    0.00000
             -0.01946   -0.17684    0.00000        0.00000   -0.18491    0.00000
              0.00000    0.00000    0.31480        0.00000    0.00000    0.31480

         MAIN DIRECTIONS OF THE EFG   1.0000  0.4145  0.0000
                                     -0.4145  1.0000  0.0000
                                      0.0000  0.0000  1.0000
:ANG003:  ANGLE WITH OLD X-AXIS =        22.5

:ETA003:                         ASYMM. ETA =     0.17475


       ATOMNUMBER=  4 Br         VCOUL-ZERO =  0.27404E+00
:EFG004:                        EFG         =     0.29764   *10**21  V / m**2
                               V20  TOT/SRF=    -0.12276    -0.02716
                               V22  TOT/SRF=    -0.01519    -0.00448
                               V22M TOT/SRF=    -0.22509    -0.05177
                               V21  TOT/SRF=    -0.02584    -0.00411
                               V21M TOT/SRF=     0.00675     0.00786

              0.05568   -0.22509   -0.02584        0.29764    0.00000    0.00000
             -0.22509    0.08606    0.00675        0.00000   -0.16424    0.00000
             -0.02584    0.00675   -0.14175        0.00000    0.00000   -0.13340

         MAIN DIRECTIONS OF THE EFG  -0.9378  1.0000 -0.4526
                                      1.0000  0.8754 -0.4950
                                      0.0705  0.8859  1.0000
:ANG004:  ANGLE WITH OLD X-AXIS =       130.5

:ETA004:                         ASYMM. ETA =     0.10365


     HELLMANN-FEYNMAN-FORCE IN mRy/a.u. = |F|  Fx       Fy             Fz
:FHF001:   1.ATOM      0.000000000000      0.000000000000      0.000000000000      0.000000000000

     HELLMANN-FEYNMAN-FORCE IN mRy/a.u. = |F|  Fx       Fy             Fz
:FHF002:   2.ATOM     13.019600701639     12.951995385298      1.325072816620      0.000000000000

     HELLMANN-FEYNMAN-FORCE IN mRy/a.u. = |F|  Fx       Fy             Fz
:FHF003:   3.ATOM    205.731509546475    -81.127962363674   -189.060063850063      0.000000000000

     HELLMANN-FEYNMAN-FORCE IN mRy/a.u. = |F|  Fx       Fy             Fz
:FHF004:   4.ATOM    153.787460833536     45.254167237267     94.469361650516    112.597438543831

:FIT001: LUSE= 13 SIGMA OF V-XC FIT FOR ATOM  1  0.7699692E-03
:FIT001: LUSE= 13 SIGMA OF V-XC FIT FOR ATOM  1  0.7699692E-03
:FIT002: LUSE= 13 SIGMA OF V-XC FIT FOR ATOM  2  0.1708675E-04
:FIT002: LUSE= 13 SIGMA OF V-XC FIT FOR ATOM  2  0.1708675E-04
:FIT003: LUSE= 13 SIGMA OF V-XC FIT FOR ATOM  3  0.7195921E-03
:FIT003: LUSE= 13 SIGMA OF V-XC FIT FOR ATOM  3  0.7195921E-03
:FIT004: LUSE= 13 SIGMA OF V-XC FIT FOR ATOM  4  0.6397611E-03
:FIT004: LUSE= 13 SIGMA OF V-XC FIT FOR ATOM  4  0.6397611E-03
:DEN  : DENSITY INTEGRAL  =       -114052.97783295   (Ry)
       ELS_POTENTIAL_AT Z=0 and Z=0.5:  -0.54415  -0.54415
       ELS_POTENTIAL_AT Y=0 and Y=0.5:  -0.45452  -0.45452
:VZERO:v0,v0c,v0x  -1.26530  -0.54415  -0.72115 v5,v5c,v5x  -1.26530  -0.54415  -0.72115
:VZERY:v0,v0c,v0x  -1.09361  -0.45452  -0.63909 v5,v5c,v5x  -1.09361  -0.45452  -0.63909
:VZERX:v0,v0c,v0x  -1.08632  -0.45388  -0.63244 v5,v5c,v5x  -1.08632  -0.45388  -0.63244
:LMAX-WF:   10   Non-Spherical LMAX:   4

          ATOMIC SPHERE DEPENDENT PARAMETERS FOR ATOM  Pb        
:e__0001: OVERALL ENERGY PARAMETER IS    0.1000
          OVERALL BASIS SET ON ATOM IS LAPW
:E2_0001: E( 2)=    0.5000
             APW+lo
:E2_0001: E( 2)=   -0.9530   E(BOTTOM)=   -1.190   E(TOP)=   -0.716  2  3   126
             LOCAL ORBITAL
:E0_0001: E( 0)=    0.1000
             APW+lo
:E1_0001: E( 1)=    0.1000
             APW+lo

          ATOMIC SPHERE DEPENDENT PARAMETERS FOR ATOM  Cs        
:e__0002: OVERALL ENERGY PARAMETER IS    0.1000
          OVERALL BASIS SET ON ATOM IS LAPW
:E0_0002: E( 0)=    0.5000
             APW+lo
:E0_0002: E( 0)=   -1.3745   E(BOTTOM)=   -2.057   E(TOP)=   -0.692  4  5   167
             LOCAL ORBITAL
:E1_0002: E( 1)=    0.5000
             APW+lo
:E1_0002: E( 1)=   -0.2016   E(BOTTOM)=   -1.174   E(TOP)=    0.770  3  4   192
             LOCAL ORBITAL

          ATOMIC SPHERE DEPENDENT PARAMETERS FOR ATOM  Br        
:e__0003: OVERALL ENERGY PARAMETER IS    0.1000
          OVERALL BASIS SET ON ATOM IS LAPW
:E2_0003: E( 2)=    0.1000
             APW+lo
:E2_0003: E( 2)=   -4.3446   E(BOTTOM)=   -4.348   E(TOP)=   -4.341  1  1   119
             LOCAL ORBITAL
:E0_0003: E( 0)=    0.5000
             APW+lo
:E0_0003: E( 0)=   -0.9513   E(BOTTOM)=   -1.517   E(TOP)=   -0.386  3  4   151
             LOCAL ORBITAL
:E1_0003: E( 1)=    0.1000
             APW+lo

          ATOMIC SPHERE DEPENDENT PARAMETERS FOR ATOM  Br        
:e__0004: OVERALL ENERGY PARAMETER IS    0.1000
          OVERALL BASIS SET ON ATOM IS LAPW
:E2_0004: E( 2)=    0.1000
             APW+lo
:E2_0004: E( 2)=   -4.3447   E(BOTTOM)=   -4.348   E(TOP)=   -4.341  1  1   120
             LOCAL ORBITAL
:E0_0004: E( 0)=    0.5000
             APW+lo
:E0_0004: E( 0)=   -0.9513   E(BOTTOM)=   -1.517   E(TOP)=   -0.386  3  4   163
             LOCAL ORBITAL
:E1_0004: E( 1)=    0.1000
             APW+lo

       K=   0.04545   0.04545   0.07143            1
:RKM  : MATRIX SIZE  2199LOs: 268  RKM= 7.00  WEIGHT= 8.00  PGR:    
       EIGENVALUES ARE:
:EIG00001:      -4.3444969   -4.3444889   -4.3444868   -4.3444862   -4.3444846
:EIG00006:      -4.3444821   -4.3444776   -4.3444770   -4.3444748   -4.3444719
:EIG00011:      -4.3444690   -4.3444642   -4.3442105   -4.3441966   -4.3441937
:EIG00016:      -4.3441922   -4.3441709   -4.3441623   -4.3441606   -4.3441559
:EIG00021:      -4.3441547   -4.3441522   -4.3441461   -4.3441349   -4.3441109
:EIG00026:      -4.3441052   -4.3440934   -4.3440866   -4.3440796   -4.3440780
:EIG00031:      -4.3440713   -4.3440673   -4.3439160   -4.3439108   -4.3439057
:EIG00036:      -4.3439008   -4.3435366   -4.3435361   -4.3435279   -4.3435272
:EIG00041:      -4.3435205   -4.3435172   -4.3435139   -4.3435083   -4.3434971
:EIG00046:      -4.3434884   -4.3434806   -4.3434772   -4.3434768   -4.3434741
 
:EIG00051:      -4.3434677   -4.3434653   -4.3434498   -4.3434426   -4.3434398
:EIG00056:      -4.3434371   -4.3433842   -4.3433829   -4.3433785   -4.3433719
:EIG00061:      -1.3806757   -1.3805135   -1.3803310   -1.3802280   -0.9761141
:EIG00066:      -0.9758651   -0.9757802   -0.9747850   -0.9736553   -0.9709582
:EIG00071:      -0.9530285   -0.9528281   -0.9526407   -0.9523382   -0.9518844
:EIG00076:      -0.9514421   -0.9193672   -0.9191730   -0.9186403   -0.9128237
:EIG00081:      -0.9126821   -0.9126201   -0.9125489   -0.9124649   -0.9124083
:EIG00086:      -0.9120375   -0.9120073   -0.9118523   -0.9118075   -0.9116570
:EIG00091:      -0.9115074   -0.9073866   -0.8945860   -0.8825041   -0.8822466
:EIG00096:      -0.8817102   -0.4225792   -0.4206506   -0.4202142   -0.4196311
 
:EIG00101:      -0.4179973   -0.4175941   -0.4173685   -0.4158474   -0.4158049
:EIG00106:      -0.4155931   -0.4151658   -0.4143466   -0.4134362   -0.3778217
:EIG00111:      -0.3376186   -0.2771720   -0.1551148   -0.1543330   -0.1513816
:EIG00116:      -0.1471737   -0.1453243   -0.1365931   -0.1038136   -0.0861976
:EIG00121:      -0.0831354   -0.0816658   -0.0803047   -0.0731675   -0.0643440
:EIG00126:      -0.0585288   -0.0563119   -0.0537075   -0.0510438   -0.0486551
:EIG00131:      -0.0473484   -0.0453318   -0.0448653   -0.0435979   -0.0370239
:EIG00136:      -0.0326899   -0.0323003   -0.0319212   -0.0297084   -0.0282672
:EIG00141:      -0.0270324   -0.0245224   -0.0230042   -0.0226728   -0.0052387
:EIG00146:       0.0487056    0.0968422    0.1499867    0.3291161    0.3327733
 
:EIG00151:       0.3367422    0.3614778    0.3746844    0.3924698    0.3970574
:EIG00156:       0.4764828    0.4822936    0.4892029    0.4942633    0.5220663
:EIG00161:       0.5246025    0.5291590    0.5366775    0.5409826    0.5415785
:EIG00166:       0.5451316    0.5505861    0.5518580    0.5661395    0.5702459
:EIG00171:       0.5712541    0.5784685    0.5916186    0.5950612    0.5991501
:EIG00176:       0.6050154    0.6063795    0.6115753    0.6141004    0.6237248
:EIG00181:       0.6293527    0.6335352    0.6421873    0.6505199    0.6526701
:EIG00186:       0.6692205    0.6755592    0.6845019    0.6914241    0.6961357
:EIG00191:       0.7092519    0.7259813    0.7362379    0.7435896    0.7509056
:EIG00196:       0.7536109    0.7560509    0.7614186    0.7708138    0.7806104
 
:EIG00201:       0.7817884    0.7862081    0.7890765    0.8268659    0.8458997
:EIG00206:       0.8513196    0.8539527    0.8589077    0.8599992    0.8630715
:EIG00211:       0.8665193    0.8766108    0.8907038    0.8927395    0.9037753
:EIG00216:       0.9191732    0.9315339    0.9389090    0.9467178    0.9513499
:EIG00221:       0.9532753    0.9628306    0.9739593    0.9788450    0.9906258
:EIG00226:       0.9925705    1.0029302    1.0076788    1.0090131    1.0124283
:EIG00231:       1.0202955    1.0222477    1.0357934    1.0519456    1.0598347
:EIG00236:       1.0670650    1.0739014    1.0807731    1.0828396    1.0862298
:EIG00241:       1.0895051    1.0953574    1.0978602    1.1005874    1.1046828
:EIG00246:       1.1091044    1.1141714    1.1208582    1.1218684    1.1284700
 
:EIG00251:       1.1312216    1.1368864    1.1430104    1.1464869    1.1508975
:EIG00256:       1.1571415    1.1605415    1.1652139    1.1671654    1.1681805
:EIG00261:       1.1745812    1.1785962    1.1801127    1.1838178    1.1893781
:EIG00266:       1.1900929    1.1959268    1.2001722    1.2119473    1.2171970
:EIG00271:       1.2205543    1.2237323    1.2272353    1.2319782    1.2367773
:EIG00276:       1.2375619    1.2459800    1.2471674    1.2540367    1.2570296
:EIG00281:       1.2654351    1.2709988    1.2781417    1.2805731    1.2844186
:EIG00286:       1.2929448    1.3055466    1.3102254    1.3129297    1.3152003
:EIG00291:       1.3195470    1.3320188    1.3372524    1.3404305    1.3530659
:EIG00296:       1.3621554    1.3675042    1.3696255    1.3767644    1.3845230
 
:EIG00301:       1.3860496    1.3891242    1.4015792    1.4083169    1.4096144
:EIG00306:       1.4207154    1.4262851    1.4283612    1.4330025    1.4367225
:EIG00311:       1.4429584    1.4432846    1.4492583    1.4555533    1.4642552
:EIG00316:       1.4656383    1.4706356    1.4727876    1.4796000    1.4824621
:EIG00321:       1.4869115    1.4928780    1.5008265    1.5012298    1.5035023
:EIG00326:       1.5120807    1.5170254    1.5192046    1.5235288    1.5255347
:EIG00331:       1.5287297    1.5355737    1.5444331    1.5463086    1.5497743
:EIG00336:       1.5597383    1.5635089    1.5734270    1.5792468    1.5833424
:EIG00341:       1.5856521    1.5949534    1.6088570    1.6118456    1.6240480
:EIG00346:       1.6269386    1.6357159    1.6385630    1.6439165    1.6533725
 
:EIG00351:       1.6560350    1.6596811    1.6634270    1.6729297    1.6762563
:EIG00356:       1.6780550    1.6801985    1.6848107    1.6928193    1.7079575
:EIG00361:       1.7094195    1.7111543    1.7214038    1.7226840    1.7241973
:EIG00366:       1.7311126    1.7352214    1.7365323    1.7449067    1.7469030
:EIG00371:       1.7511916    1.7552937    1.7626553    1.7664618    1.7698144
:EIG00376:       1.7758308    1.7873844    1.7894171    1.7937454    1.7953188
       ********************************************************

:KPT   :      NUMBER OF K-POINTS:   144
       Insulator, EF-inconsistency corrected
:GAP (global)   :  0.179129 Ry =     2.437 eV (accurate value if proper k-mesh)
         Bandranges (emin - emax) and occupancy:
:BAN00138: 138   -0.041208   -0.029875  2.00000000
:BAN00139: 139   -0.038296   -0.029577  2.00000000
:BAN00140: 140   -0.038296   -0.028267  2.00000000
:BAN00141: 141   -0.034231   -0.026219  2.00000000
:BAN00142: 142   -0.033289   -0.024085  2.00000000
:BAN00143: 143   -0.028146   -0.018503  2.00000000
:BAN00144: 144   -0.028146   -0.018503  2.00000000
:BAN00145: 145   -0.005239    0.059460  2.00000000
:BAN00146: 146    0.004417    0.061227  2.00000000
:BAN00147: 147    0.032929    0.112231  2.00000000
:BAN00148: 148    0.032929    0.149987  2.00000000
:BAN00149: 149    0.329116    0.432299  0.00000000
:BAN00150: 150    0.332773    0.432299  0.00000000
:BAN00151: 151    0.336742    0.438442  0.00000000
:BAN00152: 152    0.354527    0.438442  0.00000000
:BAN00153: 153    0.370912    0.455923  0.00000000
        Energy to separate low and high energystates:   -0.47258


:NOE  : NUMBER OF ELECTRONS          =  296.000

:FER  : F E R M I - ENERGY(TETRAH.M.)=   0.1499867444
:GMA  : POTENTIAL AND CHARGE CUT-OFF  12.00 Ry**.5

:POS001: ATOM   -1 X,Y,Z = 0.50000 0.50000 0.50000  MULT= 4  ZZ= 82.000  Pb        

       LMMAX 28
       LM=   0 0  2 0  2 1 -2 1  2 2 -2 2  4 0  4 1 -4 1  4 2 -4 2  4 3 -4 3  4 4 -4 4  6 0  6 1
        -6 1  6 2 -6 2  6 3 -6 3  6 4 -6 4  6 5 -6 5  6 6 -6 6

:CHA001: TOTAL VALENCE CHARGE INSIDE SPHERE   1 =  11.3205    (RMT=  2.5000 )
:PCS001: PARTIAL CHARGES SPHERE =  1 S,P,D,F,PX,PY,PZ,D-Z2,D-X2Y2,D-XY,D-XZ,D-YZ 
:QTL001: 1.3321 0.2694 9.7042 0.0125 0.0890 0.0896 0.0908 1.9487 1.9369 1.9473 1.9361 1.9353
        Q-s-low E-s-low   Q-p-low E-p-low   Q-d-low E-d-low   Q-f-low E-f-low
:EPL001:  0.0183 -0.9591    0.0089 -0.9507    9.6292 -0.9141    0.0010 -0.9585
        Q-s-hi  E-s-hi    Q-p-hi  E-p-hi    Q-d-hi  E-d-hi    Q-f-hi  E-f-hi 
:EPH001:  1.3137 -0.2312    0.2606 -0.0975    0.0750 -0.0622    0.0115 -0.0638

                      QXX         QXY         QYY         QZZ       UP TO R
:VZZ001:             0.65312     0.66642     0.14474    -0.79786       2.500

:POS002: ATOM   -2 X,Y,Z = 0.48491 0.94655 0.25000  MULT= 4  ZZ= 55.000  Cs        

       LMMAX 28
       LM=   0 0  1 1 -1 1  2 0  2 2 -2 2  3 1 -3 1  3 3 -3 3  4 0  4 2 -4 2  4 4 -4 4  5 1 -5 1
         5 3 -5 3  5 5 -5 5  6 0  6 2 -6 2  6 4 -6 4  6 6 -6 6

:CHA002: TOTAL VALENCE CHARGE INSIDE SPHERE   2 =   6.3021    (RMT=  2.5000 )
:PCS002: PARTIAL CHARGES SPHERE =  2 S,P,D,F,PX,PY,PZ,D-Z2,D-X2Y2,D-XY,D-XZ,D-YZ 
:QTL002: 1.7961 4.4889 0.0150 0.0018 1.4955 1.4965 1.4969 0.0026 0.0034 0.0022 0.0031 0.0038
        Q-s-low E-s-low   Q-p-low E-p-low   Q-d-low E-d-low   Q-f-low E-f-low
:EPL002:  1.7866 -1.3800    0.0022 -0.9500    0.0002 -0.9525    0.0001 -0.9954
        Q-s-hi  E-s-hi    Q-p-hi  E-p-hi    Q-d-hi  E-d-hi    Q-f-hi  E-f-hi 
:EPH002:  0.0095 -0.0820    4.4867 -0.4048    0.0148 -0.0569    0.0017 -0.0498

                      QXX         QXY         QYY         QZZ       UP TO R
:VZZ002:             0.55937     1.62130    -0.11835    -0.44101       2.500

:POS003: ATOM   -3 X,Y,Z = 0.56000 0.50750 0.25000  MULT= 4  ZZ= 35.000  Br        

       LMMAX 28
       LM=   0 0  1 1 -1 1  2 0  2 2 -2 2  3 1 -3 1  3 3 -3 3  4 0  4 2 -4 2  4 4 -4 4  5 1 -5 1
         5 3 -5 3  5 5 -5 5  6 0  6 2 -6 2  6 4 -6 4  6 6 -6 6

:CHA003: TOTAL VALENCE CHARGE INSIDE SPHERE   3 =  15.9441    (RMT=  2.5000 )
:PCS003: PARTIAL CHARGES SPHERE =  3 S,P,D,F,PX,PY,PZ,D-Z2,D-X2Y2,D-XY,D-XZ,D-YZ 
:QTL003: 1.7964 4.130610.0140 0.0024 1.3961 1.4001 1.3344 2.0109 2.0004 2.0002 2.0017 2.0010
        Q-s-low E-s-low   Q-p-low E-p-low   Q-d-low E-d-low   Q-f-low E-f-low
:EPL003:  1.7651 -0.9523    0.0061 -0.9174   10.0001 -4.3433    0.0006 -0.9230
        Q-s-hi  E-s-hi    Q-p-hi  E-p-hi    Q-d-hi  E-d-hi    Q-f-hi  E-f-hi 
:EPH003:  0.0314 -0.2503    4.1245 -0.0642    0.0140 -0.1199    0.0018 -0.1692

                      QXX         QXY         QYY         QZZ       UP TO R
:VZZ003:            -5.38698    -0.35097    -6.62721    12.01420       2.500

:POS004: ATOM   -4 X,Y,Z = 0.19962 0.70227 0.46752  MULT= 8  ZZ= 35.000  Br        

       LMMAX 49

:CHA004: TOTAL VALENCE CHARGE INSIDE SPHERE   4 =  15.9447    (RMT=  2.5000 )
:PCS004: PARTIAL CHARGES SPHERE =  4 S,P,D,F,PX,PY,PZ,D-Z2,D-X2Y2,D-XY,D-XZ,D-YZ 
:QTL004: 1.7962 4.132010.0136 0.0024 1.3690 1.3658 1.3972 2.0027 2.0019 2.0073 2.0008 2.0009
        Q-s-low E-s-low   Q-p-low E-p-low   Q-d-low E-d-low   Q-f-low E-f-low
:EPL004:  1.7656 -0.9522    0.0059 -0.9164   10.0000 -4.3434    0.0006 -0.9242
        Q-s-hi  E-s-hi    Q-p-hi  E-p-hi    Q-d-hi  E-d-hi    Q-f-hi  E-f-hi 
:EPH004:  0.0307 -0.2508    4.1261 -0.0641    0.0136 -0.1224    0.0018 -0.1638

                      QXX         QXY         QYY         QZZ       UP TO R
:VZZ004:             2.28081    -8.57861     3.25757    -5.53838       2.500

:CHA  : TOTAL VALENCE CHARGE INSIDE UNIT CELL =     296.000000

:SUM  : SUM OF EIGENVALUES =        -608.579065329


        1.ATOM      Pb                   19 CORE STATES
:1S 001: 1S               -6465.876437322 Ry
:2S 001: 2S               -1154.922785119 Ry
:2PP001: 2P*              -1108.913397619 Ry
:2P 001: 2P                -947.954678645 Ry
:3S 001: 3S                -276.712255611 Ry
:3PP001: 3P*               -255.986949370 Ry
:3P 001: 3P                -220.073153945 Ry
:3DD001: 3D*               -186.081498141 Ry
:3D 001: 3D                -178.441185634 Ry
:4S 001: 4S                 -62.147092097 Ry
:4PP001: 4P*                -53.182279497 Ry
:4P 001: 4P                 -44.391606370 Ry
:4DD001: 4D*                -29.810795438 Ry
:4D 001: 4D                 -28.170605953 Ry
:5S 001: 5S                  -9.922135586 Ry
:5PP001: 5P*                 -6.866977334 Ry
:5P 001: 5P                  -5.225547122 Ry
:4FF001: 4F*                 -9.298187301 Ry
:4F 001: 4F                  -8.928457098 Ry

        2.ATOM      Cs                   14 CORE STATES
       CORE-FORCE in mRy/a.u. = |F|      Fx             Fy             Fz
:FCO002:   2.ATOM     11.362370384705    -11.279814967898     -1.367199710797      0.000000000000

:1S 002: 1S               -2628.598880368 Ry
:2S 002: 2S                -411.672198110 Ry
:2PP002: 2P*               -387.234960742 Ry
:2P 002: 2P                -361.343197088 Ry
:3S 002: 3S                 -85.122329796 Ry
:3PP002: 3P*                -74.918913609 Ry
:3P 002: 3P                 -69.957055895 Ry
:3DD002: 3D*                -52.037753768 Ry
:3D 002: 3D                 -50.984428038 Ry
:4S 002: 4S                 -15.588123600 Ry
:4PP002: 4P*                -11.927273987 Ry
:4P 002: 4P                 -10.915335009 Ry
:4DD002: 4D*                 -4.965570098 Ry
:4D 002: 4D                  -4.797673263 Ry

        3.ATOM      Br                    7 CORE STATES
       CORE-FORCE in mRy/a.u. = |F|      Fx             Fy             Fz
:FCO003:   3.ATOM    106.267209418269     40.472121258078     98.258471382459      0.000000000000

:1S 003: 1S                -977.961632793 Ry
:2S 003: 2S                -126.758999330 Ry
:2PP003: 2P*               -114.089042558 Ry
:2P 003: 2P                -110.597661185 Ry
:3S 003: 3S                 -16.933159658 Ry
:3PP003: 3P*                -12.528621163 Ry
:3P 003: 3P                 -12.026421716 Ry

        4.ATOM      Br                    7 CORE STATES
       CORE-FORCE in mRy/a.u. = |F|      Fx             Fy             Fz
:FCO004:   4.ATOM     77.867281056369    -22.107131084892    -47.833758440829    -57.328176037018

:1S 004: 1S                -977.961693232 Ry
:2S 004: 2S                -126.759061222 Ry
:2PP004: 2P*               -114.089104232 Ry
:2P 004: 2P                -110.597722891 Ry
:3S 004: 3S                 -16.933222292 Ry
:3PP004: 3P*                -12.528683691 Ry
:3P 004: 3P                 -12.026484210 Ry
:CINT001 Core Integral Atom   1   67.995052
:CINT002 Core Integral Atom   2   45.995269
:CINT003 Core Integral Atom   3   17.999989
:CINT004 Core Integral Atom   4   17.999989

       DENSITY AT NUCLEUS
        JATOM        VALENCE       SEMI-CORE          CORE           TOTAL
:RTO001:   1     1947.810234        0.000000  9911352.888262  9913300.698496
:RTO002:   2      320.949909        0.000000   438170.923749   438491.873658
:RTO003:   3       73.572237        0.000000    45839.118216    45912.690453
:RTO004:   4       73.558024        0.000000    45839.118204    45912.676228
     
       CHARGES OF NEW CHARGE DENSITY
:NTO   : INTERSTITIAL CHARGE =    34.175461
:NPC   : PW Pseudocharge     =   103.109375
:NTO001: CHARGE SPHERE  1    =    79.315585
:NTO002: CHARGE SPHERE  2    =    52.297330
:NTO003: CHARGE SPHERE  3    =    33.944052
:NTO004: CHARGE SPHERE  4    =    33.944724

:NEC01: NUCLEAR AND ELECTRONIC CHARGE    968.00000   967.96112
     
       CHARGES OF OLD CHARGE DENSITY
:OTO   : INTERSTITIAL CHARGE =    36.554668
:OPC   : PW Pseudocharge     =   113.502361
:OTO001: CHARGE SPHERE  1    =    79.796962
:OTO002: CHARGE SPHERE  2    =    52.317420
:OTO003: CHARGE SPHERE  3    =    33.582715
:OTO004: CHARGE SPHERE  4    =    33.582123

:NEC02: NUCLEAR AND ELECTRONIC CHARGE    968.00000   968.00004
     
       CONVERGENCE TEST
:DTO001: DIFFERENCE IN SPHERE  1 =  0.2490883
:DTO002: DIFFERENCE IN SPHERE  2 =  0.0419960
:DTO003: DIFFERENCE IN SPHERE  3 =  0.1824040
:DTO004: DIFFERENCE IN SPHERE  4 =  0.1830905

:DIS  :  CHARGE DISTANCE       ( 0.2490883 for atom    1 spin 1)      0.1679339
 PW Mixed is         2247
 
******************************************************
* MULTISECANT MIXING VER9 RELEASE 10.4.0              *
* Slow Mode, cautious                                *
* Fixed density scale                                *
* Regularization       1.000E-04                     *
* Step Trust Radius    0.75000                       *
* Trust Upper Limit    2.000E+00                     *
* Max Number of Memory Steps   12                    *
******************************************************
 
:PWTMP   3.9481E+03  2.5000E+03  5.2571E+03
:PLANE:  PW TOTAL      8.9253 DISTAN   1.04E+00  1.16E+01 %
:CHARG:  CLM/ATOM   1115.9675 DISTAN   2.05E-01  1.84E-02 %
 
Step History
        DMIX         DMIXT        Red     Pred      Trust     Lambda    MagRel    MagAbs     Beta
  1   3.5000E-02   3.5000E-02 -1.00E+00  1.00E+00 -1.00E+01  1.00E+00  3.50E-02  3.50E-02  1.00E+00
  2   2.5000E-02   2.5000E-02 -1.00E+00  1.00E+00 -1.00E+01  1.00E+00  2.50E-02  9.00E-02  1.00E+00
:JACOBIANS    4.978E-01   6.812E-05
  
:TRUST:  Step 4.31E-02  Charge 7.50E-02 (e) CTO  4.43E-01 (e) PW  6.21E-01 (e)
:DIRM :  MEMORY  1/12 SCALE   1.000
:MIX  :   PRATT  REGULARIZATION:  1.00E-04 GREED: 0.04306  Expand 1.72  0.0431                
     
       CHARGES OF MIXED CHARGE DENSITY
:CTO   : INTERSTITIAL CHARGE =    36.537996
:CPC   : PW Pseudocharge     =   108.740586
:CTO001: CHARGE SPHERE  1    =    79.793593
:CTO002: CHARGE SPHERE  2    =    52.317270
:CTO003: CHARGE SPHERE  3    =    33.585269
:CTO004: CHARGE SPHERE  4    =    33.584685

:NEC03: NUCLEAR AND ELECTRONIC CHARGE    968.00000   968.00000

PW CHANGE     H    K    L      Current       Change    Residue
:PTO001:      0    0    0  2.76348799E-02 -9.089E-04 -2.400E-03
:PTO006:     -1    0   -1 -2.44024478E-03  7.270E-05  1.299E-04
:PTO007:      0    0   -2  3.05344753E-03 -5.072E-04 -1.382E-03
:PTO008:     -1   -1    0  5.72843431E-03 -1.049E-03 -2.719E-03
:PTO009:     -1   -1   -1 -1.05465244E-02  4.199E-04  6.680E-04
:PTO012:      0   -2    0  7.17836488E-03 -8.157E-04 -1.687E-03
:PTO013:     -1   -1   -2  2.26588777E-02 -3.097E-03 -6.922E-03
:PTO014:     -2    0    0  7.11124913E-03 -8.307E-04 -1.699E-03
:PTO015:      0   -2   -1  5.78661090E-03 -3.029E-04 -6.502E-04
:PTO018:     -1   -2    0 -1.06735685E-02  3.313E-04  3.119E-04
:PTO019:     -2   -1    0  1.17339534E-02 -3.727E-04 -3.589E-04
:PTO021:     -1   -2   -1  1.22402146E-02 -3.948E-04 -3.844E-04

:ENE  : ********** TOTAL ENERGY IN Ry =      -292313.20026476

       TOTAL FORCE IN mRy/a.u. = |F|     Fx             Fy             Fz     with/without FOR in case.in2
:FOR001:   1.ATOM          0.000          0.000          0.000          0.000 partial forces
:FOR002:   2.ATOM          1.673          1.672         -0.042          0.000 partial forces
:FOR003:   3.ATOM         99.488        -40.656        -90.802          0.000 partial forces
:FOR004:   4.ATOM         75.930         23.147         46.636         55.269 partial forces
       TOTAL FORCE WITH RESPECT TO GLOBAL CARTESIAN COORDINATES:
:FCA001:   1.ATOM                         0.000          0.000          0.000 partial forces
:FCA002:   2.ATOM                         1.672         -0.042          0.000 partial forces
:FCA003:   3.ATOM                       -40.656        -90.802          0.000 partial forces
:FCA004:   4.ATOM                        23.147         46.636         55.269 partial forces
       TOTAL FORCE WITH RESPECT TO THE GLOBAL COORDINATE SYSTEM:
:FGL001:   1.ATOM                 0.000000000     0.000000000     0.000000000 partial forces
:FGL002:   2.ATOM                 1.672180417    -0.042126894     0.000000000 partial forces
:FGL003:   3.ATOM               -40.655841106   -90.801592468     0.000000000 partial forces
:FGL004:   4.ATOM                23.147036152    46.635603210    55.269262507 partial forces
 Flat Integration
 New Mode for Coulomb Integral
 Consistent 3/8+Simpson combinations
 Extension of core to zero
 LDM version in phi
 Fifth-order quadrature in outwin


            ---------
:ITE003:  3. ITERATION
            ---------

:NATO :    4 INDEPENDENT AND   20 TOTAL ATOMS IN UNITCELL
       SUBSTANCE: blebleble                                                   

       LATTICE                      = P   
:POT  : POTENTIAL OPTION EX_PBE EC_PBE VX_PBE VC_PBE
:LAT  : LATTICE CONSTANTS= 15.19415 15.66734 22.08372    1.571    1.571    1.571
:VOL  : UNIT CELL VOLUME =    5257.07306
       MODE OF CALCULATION IS       = RELA
       NON-SPINPOLARIZED CALCULATION
:IFFT  : FFT-parameters:  120  120  180 Factor: 2.00


   CONVERGENCE PARAMETER FOR PSEUDOCHARGE: NCON=  9
   MAXIMAL VALUE OF RMT(JATOM)*ABSK(NKK) : RK  =29.99804


:VKCOUL :  VK-COUL convergence: 0.224E-08
       ATOMNUMBER=  1 Pb         VCOUL-ZERO =  0.92219E-01
:EFG001:                        EFG         =     0.03607   *10**21  V / m**2
                               V20  TOT/SRF=    -0.02118     0.00188
                               V22  TOT/SRF=     0.00755    -0.00071
                               V22M TOT/SRF=     0.02041    -0.00082
                               V21  TOT/SRF=    -0.00897     0.00315
                               V21M TOT/SRF=    -0.00677    -0.00510

              0.01977    0.02041   -0.00897        0.03607    0.00000    0.00000
              0.02041    0.00468   -0.00677        0.00000   -0.00952    0.00000
             -0.00897   -0.00677   -0.02446        0.00000    0.00000   -0.02655

         MAIN DIRECTIONS OF THE EFG   1.0000 -0.7056  0.1379
                                      0.6990  1.0000  0.1266
                                     -0.2264 -0.0293  1.0000
:ANG001:  ANGLE WITH OLD X-AXIS =        35.7

:ETA001:                         ASYMM. ETA =     0.47205


       ATOMNUMBER=  2 Cs         VCOUL-ZERO = -0.59837E-01
:EFG002:                        EFG         =     0.05856   *10**21  V / m**2
                               V20  TOT/SRF=    -0.01224    -0.00045
                               V22  TOT/SRF=     0.01034    -0.00050
                               V22M TOT/SRF=     0.05044    -0.00101
                               V21  TOT/SRF=     0.00000     0.00000
                               V21M TOT/SRF=     0.00000     0.00000

              0.01741    0.05044    0.00000        0.05856    0.00000    0.00000
              0.05044   -0.00327    0.00000        0.00000   -0.04442    0.00000
              0.00000    0.00000   -0.01414        0.00000    0.00000   -0.01414

         MAIN DIRECTIONS OF THE EFG   1.0000 -0.8158  0.0000
                                      0.8158  1.0000  0.0000
                                      0.0000  0.0000  1.0000
:ANG002:  ANGLE WITH OLD X-AXIS =        39.2

:ETA002:                         ASYMM. ETA =     0.51716


       ATOMNUMBER=  3 Br         VCOUL-ZERO =  0.27238E+00
:EFG003:                        EFG         =     0.39303   *10**21  V / m**2
                               V20  TOT/SRF=     0.34038     0.06382
                               V22  TOT/SRF=     0.02354     0.00572
                               V22M TOT/SRF=    -0.02187    -0.01135
                               V21  TOT/SRF=     0.00000     0.00000
                               V21M TOT/SRF=     0.00000     0.00000

             -0.17297   -0.02187    0.00000       -0.16438    0.00000    0.00000
             -0.02187   -0.22006    0.00000        0.00000   -0.22865    0.00000
              0.00000    0.00000    0.39303        0.00000    0.00000    0.39303

         MAIN DIRECTIONS OF THE EFG   1.0000  0.3929  0.0000
                                     -0.3929  1.0000  0.0000
                                      0.0000  0.0000  1.0000
:ANG003:  ANGLE WITH OLD X-AXIS =        21.4

:ETA003:                         ASYMM. ETA =     0.16353


       ATOMNUMBER=  4 Br         VCOUL-ZERO =  0.27243E+00
:EFG004:                        EFG         =     0.37169   *10**21  V / m**2
                               V20  TOT/SRF=    -0.15391    -0.02760
                               V22  TOT/SRF=    -0.01840    -0.00450
                               V22M TOT/SRF=    -0.28094    -0.05252
                               V21  TOT/SRF=    -0.03153    -0.00408
                               V21M TOT/SRF=     0.00693     0.00787

              0.07046   -0.28094   -0.03153        0.37169    0.00000    0.00000
             -0.28094    0.10725    0.00693        0.00000   -0.20534    0.00000
             -0.03153    0.00693   -0.17772        0.00000    0.00000   -0.16635

         MAIN DIRECTIONS OF THE EFG  -0.9396  1.0000 -0.4727
                                      1.0000  0.8783 -0.5107
                                      0.0665  0.9213  1.0000
:ANG004:  ANGLE WITH OLD X-AXIS =       130.3

:ETA004:                         ASYMM. ETA =     0.10491


     HELLMANN-FEYNMAN-FORCE IN mRy/a.u. = |F|  Fx       Fy             Fz
:FHF001:   1.ATOM      0.000000000000      0.000000000000      0.000000000000      0.000000000000

     HELLMANN-FEYNMAN-FORCE IN mRy/a.u. = |F|  Fx       Fy             Fz
:FHF002:   2.ATOM     12.930292414418     12.799895354731      1.831704351221      0.000000000000

     HELLMANN-FEYNMAN-FORCE IN mRy/a.u. = |F|  Fx       Fy             Fz
:FHF003:   3.ATOM    202.140260982033    -78.019142483216   -186.477072360298      0.000000000000

     HELLMANN-FEYNMAN-FORCE IN mRy/a.u. = |F|  Fx       Fy             Fz
:FHF004:   4.ATOM    148.211700965902     42.484693205613     90.941159883413    109.047992120399

:FIT001: LUSE= 13 SIGMA OF V-XC FIT FOR ATOM  1  0.7734085E-03
:FIT001: LUSE= 13 SIGMA OF V-XC FIT FOR ATOM  1  0.7734085E-03
:FIT002: LUSE= 13 SIGMA OF V-XC FIT FOR ATOM  2  0.1725819E-04
:FIT002: LUSE= 13 SIGMA OF V-XC FIT FOR ATOM  2  0.1725819E-04
:FIT003: LUSE= 13 SIGMA OF V-XC FIT FOR ATOM  3  0.7129044E-03
:FIT003: LUSE= 13 SIGMA OF V-XC FIT FOR ATOM  3  0.7129044E-03
:FIT004: LUSE= 13 SIGMA OF V-XC FIT FOR ATOM  4  0.6337824E-03
:FIT004: LUSE= 13 SIGMA OF V-XC FIT FOR ATOM  4  0.6337824E-03
:DEN  : DENSITY INTEGRAL  =       -114050.66128159   (Ry)
       ELS_POTENTIAL_AT Z=0 and Z=0.5:  -0.53584  -0.53584
       ELS_POTENTIAL_AT Y=0 and Y=0.5:  -0.44793  -0.44793
:VZERO:v0,v0c,v0x  -1.24791  -0.53584  -0.71207 v5,v5c,v5x  -1.24791  -0.53584  -0.71207
:VZERY:v0,v0c,v0x  -1.07972  -0.44793  -0.63179 v5,v5c,v5x  -1.07972  -0.44793  -0.63179
:VZERX:v0,v0c,v0x  -1.07191  -0.44660  -0.62531 v5,v5c,v5x  -1.07191  -0.44660  -0.62531
:LMAX-WF:   10   Non-Spherical LMAX:   4

          ATOMIC SPHERE DEPENDENT PARAMETERS FOR ATOM  Pb        
:e__0001: OVERALL ENERGY PARAMETER IS   -0.0000
          OVERALL BASIS SET ON ATOM IS LAPW
:E2_0001: E( 2)=    0.4000
             APW+lo
:E2_0001: E( 2)=   -0.9574   E(BOTTOM)=   -1.195   E(TOP)=   -0.720  2  3   125
             LOCAL ORBITAL
:E0_0001: E( 0)=   -0.0000
             APW+lo
:E1_0001: E( 1)=   -0.0000
             APW+lo

          ATOMIC SPHERE DEPENDENT PARAMETERS FOR ATOM  Cs        
:e__0002: OVERALL ENERGY PARAMETER IS   -0.0000
          OVERALL BASIS SET ON ATOM IS LAPW
:E0_0002: E( 0)=    0.4000
             APW+lo
:E0_0002: E( 0)=   -1.3767   E(BOTTOM)=   -2.060   E(TOP)=   -0.694  4  5   164
             LOCAL ORBITAL
:E1_0002: E( 1)=    0.4000
             APW+lo
:E1_0002: E( 1)=   -0.2038   E(BOTTOM)=   -1.176   E(TOP)=    0.768  3  4   198
             LOCAL ORBITAL

          ATOMIC SPHERE DEPENDENT PARAMETERS FOR ATOM  Br        
:e__0003: OVERALL ENERGY PARAMETER IS   -0.0000
          OVERALL BASIS SET ON ATOM IS LAPW
:E2_0003: E( 2)=   -0.0000
             APW+lo
:E2_0003: E( 2)=   -4.3452   E(BOTTOM)=   -4.348   E(TOP)=   -4.342  1  1   119
             LOCAL ORBITAL
:E0_0003: E( 0)=    0.4000
             APW+lo
:E0_0003: E( 0)=   -0.9523   E(BOTTOM)=   -1.518   E(TOP)=   -0.387  3  4   158
             LOCAL ORBITAL
:E1_0003: E( 1)=   -0.0000
             APW+lo

          ATOMIC SPHERE DEPENDENT PARAMETERS FOR ATOM  Br        
:e__0004: OVERALL ENERGY PARAMETER IS   -0.0000
          OVERALL BASIS SET ON ATOM IS LAPW
:E2_0004: E( 2)=   -0.0000
             APW+lo
:E2_0004: E( 2)=   -4.3452   E(BOTTOM)=   -4.348   E(TOP)=   -4.342  1  1   115
             LOCAL ORBITAL
:E0_0004: E( 0)=    0.4000
             APW+lo
:E0_0004: E( 0)=   -0.9523   E(BOTTOM)=   -1.518   E(TOP)=   -0.387  3  4   154
             LOCAL ORBITAL
:E1_0004: E( 1)=   -0.0000
             APW+lo

       K=   0.04545   0.04545   0.07143            1
:RKM  : MATRIX SIZE  2199LOs: 268  RKM= 7.00  WEIGHT= 8.00  PGR:    
       EIGENVALUES ARE:
:EIG00001:      -4.3450579   -4.3450524   -4.3450507   -4.3450441   -4.3450321
:EIG00006:      -4.3450266   -4.3450226   -4.3450193   -4.3450164   -4.3450148
:EIG00011:      -4.3450104   -4.3450046   -4.3447643   -4.3447514   -4.3447487
:EIG00016:      -4.3447471   -4.3446984   -4.3446908   -4.3446882   -4.3446831
:EIG00021:      -4.3446820   -4.3446795   -4.3446736   -4.3446623   -4.3446385
:EIG00026:      -4.3446326   -4.3446206   -4.3446136   -4.3446072   -4.3446055
:EIG00031:      -4.3445983   -4.3445946   -4.3444717   -4.3444662   -4.3444615
:EIG00036:      -4.3444564   -4.3440296   -4.3440288   -4.3440206   -4.3440200
:EIG00041:      -4.3440131   -4.3440100   -4.3440066   -4.3440011   -4.3439906
:EIG00046:      -4.3439808   -4.3439745   -4.3439723   -4.3439695   -4.3439680
 
:EIG00051:      -4.3439670   -4.3439590   -4.3439580   -4.3439576   -4.3439555
:EIG00056:      -4.3439523   -4.3439021   -4.3439010   -4.3438966   -4.3438901
:EIG00061:      -1.3828226   -1.3826611   -1.3824792   -1.3823764   -0.9783241
:EIG00066:      -0.9780675   -0.9779728   -0.9767919   -0.9753064   -0.9721268
:EIG00071:      -0.9541469   -0.9539419   -0.9538093   -0.9534467   -0.9529568
:EIG00076:      -0.9525083   -0.9236397   -0.9234201   -0.9228476   -0.9171629
:EIG00081:      -0.9170223   -0.9169596   -0.9168890   -0.9168039   -0.9167478
:EIG00086:      -0.9163766   -0.9163475   -0.9161949   -0.9161503   -0.9159995
:EIG00091:      -0.9158486   -0.9111514   -0.8980054   -0.8856568   -0.8854103
:EIG00096:      -0.8848763   -0.4246369   -0.4235638   -0.4222688   -0.4217189
 
:EIG00101:      -0.4200885   -0.4196583   -0.4194483   -0.4179248   -0.4178881
:EIG00106:      -0.4176507   -0.4172569   -0.4164493   -0.4154965   -0.3808582
:EIG00111:      -0.3407546   -0.2805601   -0.1567914   -0.1560354   -0.1530924
:EIG00116:      -0.1488542   -0.1470014   -0.1383351   -0.1050497   -0.0874607
:EIG00121:      -0.0843817   -0.0829203   -0.0815676   -0.0744258   -0.0655980
:EIG00126:      -0.0596943   -0.0574934   -0.0548757   -0.0522501   -0.0498466
:EIG00131:      -0.0485214   -0.0464869   -0.0460547   -0.0448062   -0.0382416
:EIG00136:      -0.0340383   -0.0336837   -0.0333006   -0.0308984   -0.0294506
:EIG00141:      -0.0282097   -0.0256359   -0.0241465   -0.0237806   -0.0064747
:EIG00146:       0.0468109    0.0948082    0.1478143    0.3264216    0.3300604
 
:EIG00151:       0.3340846    0.3587584    0.3719520    0.3897519    0.3953187
:EIG00156:       0.4747961    0.4806643    0.4874140    0.4925325    0.5198681
:EIG00161:       0.5227624    0.5273264    0.5346114    0.5390308    0.5395830
:EIG00166:       0.5433444    0.5488242    0.5501209    0.5640994    0.5683042
:EIG00171:       0.5695610    0.5768040    0.5895572    0.5928042    0.5972594
:EIG00176:       0.6027961    0.6043012    0.6095446    0.6123069    0.6220471
:EIG00181:       0.6275262    0.6315908    0.6403697    0.6487257    0.6508954
:EIG00186:       0.6675020    0.6738246    0.6828484    0.6895712    0.6944816
:EIG00191:       0.7075448    0.7242711    0.7345372    0.7420090    0.7493062
:EIG00196:       0.7519279    0.7544640    0.7598206    0.7692108    0.7790267
 
:EIG00201:       0.7802482    0.7846592    0.7874877    0.8251895    0.8443703
:EIG00206:       0.8497608    0.8522741    0.8573137    0.8584558    0.8615190
:EIG00211:       0.8648835    0.8750908    0.8890586    0.8911316    0.9023394
:EIG00216:       0.9176387    0.9299706    0.9374162    0.9452932    0.9499212
:EIG00221:       0.9519047    0.9613835    0.9727171    0.9772518    0.9891851
:EIG00226:       0.9910888    1.0013384    1.0063557    1.0079135    1.0113442
:EIG00231:       1.0189141    1.0208336    1.0345387    1.0506165    1.0586533
:EIG00236:       1.0658054    1.0731934    1.0797666    1.0819678    1.0855414
:EIG00241:       1.0886769    1.0948547    1.0974266    1.1000535    1.1041754
:EIG00246:       1.1084966    1.1136310    1.1201033    1.1210732    1.1279127
 
:EIG00251:       1.1305634    1.1362657    1.1426177    1.1461975    1.1500171
:EIG00256:       1.1564947    1.1597822    1.1644764    1.1666727    1.1673247
:EIG00261:       1.1740854    1.1779710    1.1798762    1.1837090    1.1888507
:EIG00266:       1.1893376    1.1953552    1.1998148    1.2123497    1.2170028
:EIG00271:       1.2206562    1.2242809    1.2274627    1.2322322    1.2364219
:EIG00276:       1.2378832    1.2462573    1.2474038    1.2550511    1.2565154
:EIG00281:       1.2652368    1.2707643    1.2783165    1.2807343    1.2842660
:EIG00286:       1.2932987    1.3051419    1.3099073    1.3128457    1.3174051
:EIG00291:       1.3194451    1.3353352    1.3373862    1.3418751    1.3525606
:EIG00296:       1.3642664    1.3683507    1.3704482    1.3771125    1.3855812
 
:EIG00301:       1.3865470    1.3934321    1.4031572    1.4100330    1.4119010
:EIG00306:       1.4239623    1.4270138    1.4329219    1.4351951    1.4391574
:EIG00311:       1.4444350    1.4454219    1.4499074    1.4580459    1.4651719
:EIG00316:       1.4680523    1.4721936    1.4747703    1.4824559    1.4858269
:EIG00321:       1.4887490    1.4960507    1.5031235    1.5036251    1.5068515
:EIG00326:       1.5154806    1.5197888    1.5216069    1.5259715    1.5275217
:EIG00331:       1.5317403    1.5397897    1.5478634    1.5491452    1.5510630
:EIG00336:       1.5594689    1.5663516    1.5738692    1.5804055    1.5849814
:EIG00341:       1.5858020    1.5963072    1.6100538    1.6135419    1.6258234
:EIG00346:       1.6294191    1.6369801    1.6410090    1.6459078    1.6545843
 
:EIG00351:       1.6573465    1.6621596    1.6645302    1.6739376    1.6772661
:EIG00356:       1.6800918    1.6823940    1.6854492    1.6931972
       ********************************************************

:KPT   :      NUMBER OF K-POINTS:   144
       Insulator, EF-inconsistency corrected
:GAP (global)   :  0.178607 Ry =     2.430 eV (accurate value if proper k-mesh)
         Bandranges (emin - emax) and occupancy:
:BAN00138: 138   -0.042373   -0.031044  2.00000000
:BAN00139: 139   -0.039495   -0.030732  2.00000000
:BAN00140: 140   -0.039495   -0.029451  2.00000000
:BAN00141: 141   -0.035453   -0.027378  2.00000000
:BAN00142: 142   -0.034521   -0.025228  2.00000000
:BAN00143: 143   -0.029328   -0.019632  2.00000000
:BAN00144: 144   -0.029328   -0.019632  2.00000000
:BAN00145: 145   -0.006475    0.057480  2.00000000
:BAN00146: 146    0.002892    0.059248  2.00000000
:BAN00147: 147    0.030891    0.110102  2.00000000
:BAN00148: 148    0.030891    0.147814  2.00000000
:BAN00149: 149    0.326422    0.430004  0.00000000
:BAN00150: 150    0.330060    0.430004  0.00000000
:BAN00151: 151    0.334085    0.436078  0.00000000
:BAN00152: 152    0.351848    0.436078  0.00000000
:BAN00153: 153    0.368182    0.453486  0.00000000
        Energy to separate low and high energystates:   -0.47464


:NOE  : NUMBER OF ELECTRONS          =  296.000

:FER  : F E R M I - ENERGY(TETRAH.M.)=   0.1478143481
:GMA  : POTENTIAL AND CHARGE CUT-OFF  12.00 Ry**.5

:POS001: ATOM   -1 X,Y,Z = 0.50000 0.50000 0.50000  MULT= 4  ZZ= 82.000  Pb        

       LMMAX 28
       LM=   0 0  2 0  2 1 -2 1  2 2 -2 2  4 0  4 1 -4 1  4 2 -4 2  4 3 -4 3  4 4 -4 4  6 0  6 1
        -6 1  6 2 -6 2  6 3 -6 3  6 4 -6 4  6 5 -6 5  6 6 -6 6

:CHA001: TOTAL VALENCE CHARGE INSIDE SPHERE   1 =  11.3233    (RMT=  2.5000 )
:PCS001: PARTIAL CHARGES SPHERE =  1 S,P,D,F,PX,PY,PZ,D-Z2,D-X2Y2,D-XY,D-XZ,D-YZ 
:QTL001: 1.3326 0.2711 9.7047 0.0126 0.0895 0.0902 0.0914 1.9488 1.9370 1.9474 1.9361 1.9354
        Q-s-low E-s-low   Q-p-low E-p-low   Q-d-low E-d-low   Q-f-low E-f-low
:EPL001:  0.0185 -0.9603    0.0089 -0.9518    9.6299 -0.9185    0.0010 -0.9594
        Q-s-hi  E-s-hi    Q-p-hi  E-p-hi    Q-d-hi  E-d-hi    Q-f-hi  E-f-hi 
:EPH001:  1.3141 -0.2348    0.2622 -0.0991    0.0748 -0.0636    0.0115 -0.0652

                      QXX         QXY         QYY         QZZ       UP TO R
:VZZ001:             0.65317     0.67023     0.14019    -0.79336       2.500

:POS002: ATOM   -2 X,Y,Z = 0.48491 0.94655 0.25000  MULT= 4  ZZ= 55.000  Cs        

       LMMAX 28
       LM=   0 0  1 1 -1 1  2 0  2 2 -2 2  3 1 -3 1  3 3 -3 3  4 0  4 2 -4 2  4 4 -4 4  5 1 -5 1
         5 3 -5 3  5 5 -5 5  6 0  6 2 -6 2  6 4 -6 4  6 6 -6 6

:CHA002: TOTAL VALENCE CHARGE INSIDE SPHERE   2 =   6.3026    (RMT=  2.5000 )
:PCS002: PARTIAL CHARGES SPHERE =  2 S,P,D,F,PX,PY,PZ,D-Z2,D-X2Y2,D-XY,D-XZ,D-YZ 
:QTL002: 1.7962 4.4894 0.0151 0.0018 1.4957 1.4966 1.4971 0.0026 0.0034 0.0023 0.0031 0.0038
        Q-s-low E-s-low   Q-p-low E-p-low   Q-d-low E-d-low   Q-f-low E-f-low
:EPL002:  1.7867 -1.3822    0.0022 -0.9512    0.0002 -0.9536    0.0001 -0.9978
        Q-s-hi  E-s-hi    Q-p-hi  E-p-hi    Q-d-hi  E-d-hi    Q-f-hi  E-f-hi 
:EPH002:  0.0095 -0.0832    4.4872 -0.4068    0.0149 -0.0581    0.0017 -0.0510

                      QXX         QXY         QYY         QZZ       UP TO R
:VZZ002:             0.56130     1.62653    -0.11681    -0.44449       2.500

:POS003: ATOM   -3 X,Y,Z = 0.56000 0.50750 0.25000  MULT= 4  ZZ= 35.000  Br        

       LMMAX 28
       LM=   0 0  1 1 -1 1  2 0  2 2 -2 2  3 1 -3 1  3 3 -3 3  4 0  4 2 -4 2  4 4 -4 4  5 1 -5 1
         5 3 -5 3  5 5 -5 5  6 0  6 2 -6 2  6 4 -6 4  6 6 -6 6

:CHA003: TOTAL VALENCE CHARGE INSIDE SPHERE   3 =  15.9413    (RMT=  2.5000 )
:PCS003: PARTIAL CHARGES SPHERE =  3 S,P,D,F,PX,PY,PZ,D-Z2,D-X2Y2,D-XY,D-XZ,D-YZ 
:QTL003: 1.7963 4.128110.0140 0.0024 1.3955 1.3995 1.3330 2.0109 2.0004 2.0002 2.0017 2.0010
        Q-s-low E-s-low   Q-p-low E-p-low   Q-d-low E-d-low   Q-f-low E-f-low
:EPL003:  1.7648 -0.9534    0.0061 -0.9215   10.0001 -4.3439    0.0006 -0.9273
        Q-s-hi  E-s-hi    Q-p-hi  E-p-hi    Q-d-hi  E-d-hi    Q-f-hi  E-f-hi 
:EPH003:  0.0315 -0.2534    4.1220 -0.0655    0.0140 -0.1225    0.0018 -0.1719

                      QXX         QXY         QYY         QZZ       UP TO R
:VZZ003:            -5.44093    -0.34445    -6.67987    12.12080       2.500

:POS004: ATOM   -4 X,Y,Z = 0.19962 0.70227 0.46752  MULT= 8  ZZ= 35.000  Br        

       LMMAX 49

:CHA004: TOTAL VALENCE CHARGE INSIDE SPHERE   4 =  15.9420    (RMT=  2.5000 )
:PCS004: PARTIAL CHARGES SPHERE =  4 S,P,D,F,PX,PY,PZ,D-Z2,D-X2Y2,D-XY,D-XZ,D-YZ 
:QTL004: 1.7961 4.129410.0136 0.0024 1.3680 1.3648 1.3966 2.0027 2.0019 2.0073 2.0008 2.0009
        Q-s-low E-s-low   Q-p-low E-p-low   Q-d-low E-d-low   Q-f-low E-f-low
:EPL004:  1.7653 -0.9532    0.0059 -0.9206   10.0000 -4.3439    0.0006 -0.9284
        Q-s-hi  E-s-hi    Q-p-hi  E-p-hi    Q-d-hi  E-d-hi    Q-f-hi  E-f-hi 
:EPH004:  0.0308 -0.2539    4.1236 -0.0654    0.0136 -0.1250    0.0018 -0.1665

                      QXX         QXY         QYY         QZZ       UP TO R
:VZZ004:             2.30653    -8.65495     3.28727    -5.59380       2.500

:CHA  : TOTAL VALENCE CHARGE INSIDE UNIT CELL =     296.000000

:SUM  : SUM OF EIGENVALUES =        -609.032199094


        1.ATOM      Pb                   19 CORE STATES
:1S 001: 1S               -6465.881757464 Ry
:2S 001: 2S               -1154.927976913 Ry
:2PP001: 2P*              -1108.918616754 Ry
:2P 001: 2P                -947.959877482 Ry
:3S 001: 3S                -276.717291602 Ry
:3PP001: 3P*               -255.991996826 Ry
:3P 001: 3P                -220.078183954 Ry
:3DD001: 3D*               -186.086551463 Ry
:3D 001: 3D                -178.446232999 Ry
:4S 001: 4S                 -62.151964400 Ry
:4PP001: 4P*                -53.187151711 Ry
:4P 001: 4P                 -44.396456928 Ry
:4DD001: 4D*                -29.815642934 Ry
:4D 001: 4D                 -28.175446387 Ry
:5S 001: 5S                  -9.926731863 Ry
:5PP001: 5P*                 -6.871541874 Ry
:5P 001: 5P                  -5.230060327 Ry
:4FF001: 4F*                 -9.303015028 Ry
:4F 001: 4F                  -8.933280899 Ry

        2.ATOM      Cs                   14 CORE STATES
       CORE-FORCE in mRy/a.u. = |F|      Fx             Fy             Fz
:FCO002:   2.ATOM     11.298854335995    -11.156887287753     -1.785490228038      0.000000000000

:1S 002: 1S               -2628.601270310 Ry
:2S 002: 2S                -411.674544736 Ry
:2PP002: 2P*               -387.237312427 Ry
:2P 002: 2P                -361.345546727 Ry
:3S 002: 3S                 -85.124646640 Ry
:3PP002: 3P*                -74.921231818 Ry
:3P 002: 3P                 -69.959372640 Ry
:3DD002: 3D*                -52.040073093 Ry
:3D 002: 3D                 -50.986746888 Ry
:4S 002: 4S                 -15.590402900 Ry
:4PP002: 4P*                -11.929550840 Ry
:4P 002: 4P                 -10.917609340 Ry
:4DD002: 4D*                 -4.967835741 Ry
:4D 002: 4D                  -4.799937875 Ry

        3.ATOM      Br                    7 CORE STATES
       CORE-FORCE in mRy/a.u. = |F|      Fx             Fy             Fz
:FCO003:   3.ATOM    104.387773017950     38.805433905772     96.906890647837      0.000000000000

:1S 003: 1S                -977.961995582 Ry
:2S 003: 2S                -126.759430751 Ry
:2PP003: 2P*               -114.089464870 Ry
:2P 003: 2P                -110.598084881 Ry
:3S 003: 3S                 -16.933685034 Ry
:3PP003: 3P*                -12.529148371 Ry
:3P 003: 3P                 -12.026952040 Ry

        4.ATOM      Br                    7 CORE STATES
       CORE-FORCE in mRy/a.u. = |F|      Fx             Fy             Fz
:FCO004:   4.ATOM     74.905882986552    -20.625776745456    -45.953094395846    -55.441696899429

:1S 004: 1S                -977.962028268 Ry
:2S 004: 2S                -126.759465320 Ry
:2PP004: 2P*               -114.089499153 Ry
:2P 004: 2P                -110.598119206 Ry
:3S 004: 3S                 -16.933720942 Ry
:3PP004: 3P*                -12.529184180 Ry
:3P 004: 3P                 -12.026987831 Ry
:CINT001 Core Integral Atom   1   67.995055
:CINT002 Core Integral Atom   2   45.995270
:CINT003 Core Integral Atom   3   17.999989
:CINT004 Core Integral Atom   4   17.999989

       DENSITY AT NUCLEUS
[...]
:EIG00121:      -0.0565689   -0.0552505   -0.0541051   -0.0485949   -0.0398727
:EIG00126:      -0.0294819   -0.0278605   -0.0265506   -0.0249164   -0.0226560
:EIG00131:      -0.0217185   -0.0186064   -0.0161234   -0.0145072   -0.0139270
:EIG00136:      -0.0131213   -0.0124269   -0.0058346   -0.0001750    0.0013064
:EIG00141:       0.0030484    0.0072322    0.0106350    0.0129454    0.0246270
:EIG00146:       0.0407749    0.0783775    0.1237543    0.2680709    0.2704107
 
:EIG00151:       0.2784002    0.2991480    0.3122145    0.3287756    0.4077671
:EIG00156:       0.4840108    0.4873188    0.4916178    0.4962436    0.5019610
:EIG00161:       0.5027937    0.5065212    0.5201825    0.5268495    0.5345814
:EIG00166:       0.5390404    0.5435056    0.5441657    0.5505816    0.5520568
:EIG00171:       0.5555363    0.5570031    0.5654768    0.5774743    0.5837510
:EIG00176:       0.5864358    0.6066527    0.6095024    0.6139537    0.6216148
:EIG00181:       0.6244105    0.6289496    0.6351260    0.6469012    0.6488631
:EIG00186:       0.6684221    0.6748091    0.6776621    0.6895471    0.6985782
:EIG00191:       0.7103540    0.7199200    0.7346074    0.7368220    0.7475262
:EIG00196:       0.7496507    0.7560057    0.7666175    0.7723871    0.7854530
 
:EIG00201:       0.7863704    0.7928683    0.7938383    0.8181060    0.8385074
:EIG00206:       0.8432139    0.8489742    0.8524474    0.8571767    0.8590352
:EIG00211:       0.8650213    0.8727721    0.8761993    0.8881184    0.9054830
:EIG00216:       0.9169120    0.9235740    0.9319179    0.9422989    0.9462271
:EIG00221:       0.9518880    0.9550206    0.9611260    0.9755685    0.9818088
:EIG00226:       0.9830853    0.9871518    1.0018787    1.0090350    1.0105027
:EIG00231:       1.0132838    1.0148293    1.0311421    1.0455775    1.0530325
:EIG00236:       1.0562310    1.0680955    1.0751903    1.0769779    1.0808949
:EIG00241:       1.0830831    1.0922716    1.0967007    1.0984457    1.1032001
:EIG00246:       1.1083850    1.1120868    1.1158881    1.1192523    1.1257182
 
:EIG00251:       1.1280886    1.1318280    1.1422546    1.1438742    1.1481681
:EIG00256:       1.1534109    1.1573174    1.1595525    1.1619067    1.1653883
:EIG00261:       1.1706119    1.1757614    1.1766315    1.1785835    1.1814296
:EIG00266:       1.1866895    1.1910857    1.1975667    1.2088503    1.2136641
:EIG00271:       1.2165662    1.2189235    1.2232872    1.2300352    1.2338368
:EIG00276:       1.2387417    1.2429096    1.2437980    1.2519064    1.2562079
:EIG00281:       1.2628837    1.2655299    1.2709018    1.2764999    1.2798586
:EIG00286:       1.2866153    1.2971427    1.3013894    1.3032895    1.3065169
:EIG00291:       1.3143970    1.3283140    1.3301995    1.3327179    1.3431776
:EIG00296:       1.3519127    1.3614380    1.3649881    1.3696705    1.3800293
 
:EIG00301:       1.3839031    1.3878045    1.3920939    1.3992570    1.4012643
:EIG00306:       1.4132897    1.4180093    1.4207603    1.4279701    1.4293962
:EIG00311:       1.4347349    1.4395699    1.4433849    1.4455264    1.4550573
:EIG00316:       1.4617753    1.4685723    1.4756358    1.4782310    1.4819855
:EIG00321:       1.4846860    1.4855936    1.4868427    1.5003535    1.5022906
:EIG00326:       1.5090993    1.5154243    1.5222339    1.5245365    1.5261534
:EIG00331:       1.5297421    1.5361088    1.5425211    1.5438599    1.5500238
:EIG00336:       1.5581009    1.5612203    1.5659002    1.5764532    1.5782497
:EIG00341:       1.5840512    1.5878724    1.6076987    1.6126073    1.6181382
:EIG00346:       1.6229594
 
       ********************************************************

:KPT   :      NUMBER OF K-POINTS:   144
:GAP (global)   :  0.144317 Ry =     1.964 eV (accurate value if proper k-mesh)
         Bandranges (emin - emax) and occupancy:
:BAN00138: 138   -0.011800    0.001083  2.00000000
:BAN00139: 139   -0.010224    0.001790  2.00000000
:BAN00140: 140   -0.010224    0.001790  2.00000000
:BAN00141: 141   -0.008488    0.005691  2.00000000
:BAN00142: 142   -0.008488    0.007232  2.00000000
:BAN00143: 143    0.003468    0.013469  2.00000000
:BAN00144: 144    0.003468    0.013469  2.00000000
:BAN00145: 145    0.017220    0.045492  2.00000000
:BAN00146: 146    0.018689    0.048152  2.00000000
:BAN00147: 147    0.023005    0.088592  2.00000000
:BAN00148: 148    0.023005    0.123754  2.00000000
:BAN00149: 149    0.268071    0.389234  0.00000000
:BAN00150: 150    0.270411    0.389234  0.00000000
:BAN00151: 151    0.278400    0.395727  0.00000000
:BAN00152: 152    0.294981    0.395727  0.00000000
:BAN00153: 153    0.308843    0.408654  0.00000000
        Energy to separate low and high energystates:   -0.21303


:NOE  : NUMBER OF ELECTRONS          =  296.000

:FER  : F E R M I - ENERGY(TETRAH.M.)=   0.1238293521
:GMA  : POTENTIAL AND CHARGE CUT-OFF  12.00 Ry**.5

:POS001: ATOM   -1 X,Y,Z = 0.50000 0.50000 0.50000  MULT= 4  ZZ= 82.000  Pb        

       LMMAX 28
       LM=   0 0  2 0  2 1 -2 1  2 2 -2 2  4 0  4 1 -4 1  4 2 -4 2  4 3 -4 3  4 4 -4 4  6 0  6 1
        -6 1  6 2 -6 2  6 3 -6 3  6 4 -6 4  6 5 -6 5  6 6 -6 6

:CHA001: TOTAL VALENCE CHARGE INSIDE SPHERE   1 =  11.5212    (RMT=  2.5000 )
:PCS001: PARTIAL CHARGES SPHERE =  1 S,P,D,F,PX,PY,PZ,D-Z2,D-X2Y2,D-XY,D-XZ,D-YZ 
:QTL001: 1.3766 0.3921 9.7353 0.0147 0.1302 0.1308 0.1311 1.9553 1.9427 1.9541 1.9419 1.9413
        Q-s-low E-s-low   Q-p-low E-p-low   Q-d-low E-d-low   Q-f-low E-f-low
:EPL001:  1.0868 -0.4650    0.0162 -0.7974    9.6677 -1.0788    0.0015 -0.8510
        Q-s-hi  E-s-hi    Q-p-hi  E-p-hi    Q-d-hi  E-d-hi    Q-f-hi  E-f-hi 
:EPH001:  0.2898  0.0274    0.3759 -0.0995    0.0676 -0.0371    0.0133 -0.0399

                      QXX         QXY         QYY         QZZ       UP TO R
:VZZ001:             0.37988     0.73742    -0.14455    -0.23533       2.500

:POS002: ATOM   -2 X,Y,Z = 0.48491 0.94655 0.25000  MULT= 4  ZZ= 55.000  Cs        

       LMMAX 28
       LM=   0 0  1 1 -1 1  2 0  2 2 -2 2  3 1 -3 1  3 3 -3 3  4 0  4 2 -4 2  4 4 -4 4  5 1 -5 1
         5 3 -5 3  5 5 -5 5  6 0  6 2 -6 2  6 4 -6 4  6 6 -6 6

:CHA002: TOTAL VALENCE CHARGE INSIDE SPHERE   2 =   6.3293    (RMT=  2.5000 )
:PCS002: PARTIAL CHARGES SPHERE =  2 S,P,D,F,PX,PY,PZ,D-Z2,D-X2Y2,D-XY,D-XZ,D-YZ 
:QTL002: 1.7981 4.5111 0.0179 0.0020 1.5027 1.5038 1.5045 0.0031 0.0040 0.0027 0.0037 0.0045
        Q-s-low E-s-low   Q-p-low E-p-low   Q-d-low E-d-low   Q-f-low E-f-low
:EPL002:  1.7880 -1.4001    4.3822 -0.4341    0.0002 -0.8308    0.0001 -0.8950
        Q-s-hi  E-s-hi    Q-p-hi  E-p-hi    Q-d-hi  E-d-hi    Q-f-hi  E-f-hi 
:EPH002:  0.0101 -0.0524    0.1288 -0.0398    0.0177 -0.0262    0.0019 -0.0177

                      QXX         QXY         QYY         QZZ       UP TO R
:VZZ002:             0.77894     2.17761    -0.08188    -0.69705       2.500

:POS003: ATOM   -3 X,Y,Z = 0.56000 0.50750 0.25000  MULT= 4  ZZ= 35.000  Br        

       LMMAX 28
       LM=   0 0  1 1 -1 1  2 0  2 2 -2 2  3 1 -3 1  3 3 -3 3  4 0  4 2 -4 2  4 4 -4 4  5 1 -5 1
         5 3 -5 3  5 5 -5 5  6 0  6 2 -6 2  6 4 -6 4  6 6 -6 6

:CHA003: TOTAL VALENCE CHARGE INSIDE SPHERE   3 =  15.7596    (RMT=  2.5000 )
:PCS003: PARTIAL CHARGES SPHERE =  3 S,P,D,F,PX,PY,PZ,D-Z2,D-X2Y2,D-XY,D-XZ,D-YZ 
:QTL003: 1.7829 3.959110.0141 0.0029 1.3525 1.3592 1.2474 2.0105 2.0003 2.0002 2.0019 2.0012
        Q-s-low E-s-low   Q-p-low E-p-low   Q-d-low E-d-low   Q-f-low E-f-low
:EPL003:  1.7707 -0.9058    0.0871 -0.4834   10.0046 -4.2859    0.0014 -0.6828
        Q-s-hi  E-s-hi    Q-p-hi  E-p-hi    Q-d-hi  E-d-hi    Q-f-hi  E-f-hi 
:EPH003:  0.0122 -0.0538    3.8721 -0.0345    0.0095 -0.0265    0.0015 -0.0676

                      QXX         QXY         QYY         QZZ       UP TO R
:VZZ003:            -9.11368    -0.27237   -11.04258    20.15626       2.500

:POS004: ATOM   -4 X,Y,Z = 0.19962 0.70227 0.46752  MULT= 8  ZZ= 35.000  Br        

       LMMAX 49

:CHA004: TOTAL VALENCE CHARGE INSIDE SPHERE   4 =  15.7585    (RMT=  2.5000 )
:PCS004: PARTIAL CHARGES SPHERE =  4 S,P,D,F,PX,PY,PZ,D-Z2,D-X2Y2,D-XY,D-XZ,D-YZ 
:QTL004: 1.7828 3.958610.0137 0.0028 1.3050 1.2996 1.3541 2.0026 2.0021 2.0071 2.0009 2.0010
        Q-s-low E-s-low   Q-p-low E-p-low   Q-d-low E-d-low   Q-f-low E-f-low
:EPL004:  1.7707 -0.9046    0.0846 -0.4827   10.0045 -4.2849    0.0014 -0.6845
        Q-s-hi  E-s-hi    Q-p-hi  E-p-hi    Q-d-hi  E-d-hi    Q-f-hi  E-f-hi 
:EPH004:  0.0120 -0.0555    3.8740 -0.0336    0.0092 -0.0290    0.0015 -0.0635

                      QXX         QXY         QYY         QZZ       UP TO R
:VZZ004:             3.98669   -14.36865     5.55844    -9.54512       2.500

:CHA  : TOTAL VALENCE CHARGE INSIDE UNIT CELL =     296.000000

:SUM  : SUM OF EIGENVALUES =        -607.573829051


        1.ATOM      Pb                   19 CORE STATES
:1S 001: 1S               -6466.070285041 Ry
:2S 001: 2S               -1155.106164600 Ry
:2PP001: 2P*              -1109.098869207 Ry
:2P 001: 2P                -948.138606271 Ry
:3S 001: 3S                -276.887485819 Ry
:3PP001: 3P*               -256.162698868 Ry
:3P 001: 3P                -220.248227038 Ry
:3DD001: 3D*               -186.257213882 Ry
:3D 001: 3D                -178.616642831 Ry
:4S 001: 4S                 -62.319043549 Ry
:4PP001: 4P*                -53.354261402 Ry
:4P 001: 4P                 -44.563380049 Ry
:4DD001: 4D*                -29.982447097 Ry
:4D 001: 4D                 -28.342174382 Ry
:5S 001: 5S                 -10.092595430 Ry
:5PP001: 5P*                 -7.037669360 Ry
:5P 001: 5P                  -5.396408675 Ry
:4FF001: 4F*                 -9.469312733 Ry
:4F 001: 4F                  -9.099548577 Ry

        2.ATOM      Cs                   14 CORE STATES
       CORE-FORCE in mRy/a.u. = |F|      Fx             Fy             Fz
:FCO002:   2.ATOM     12.211419465817    -10.018166940387      6.982484982059      0.000000000000

:1S 002: 1S               -2628.628463949 Ry
:2S 002: 2S                -411.697544091 Ry
:2PP002: 2P*               -387.260652343 Ry
:2P 002: 2P                -361.368722834 Ry
:3S 002: 3S                 -85.146539496 Ry
:3PP002: 3P*                -74.943165570 Ry
:3P 002: 3P                 -69.981263069 Ry
:3DD002: 3D*                -52.061921764 Ry
:3D 002: 3D                 -51.008583423 Ry
:4S 002: 4S                 -15.611740476 Ry
:4PP002: 4P*                -11.950803790 Ry
:4P 002: 4P                 -10.938794415 Ry
:4DD002: 4D*                 -4.988649660 Ry
:4D 002: 4D                  -4.820715837 Ry

        3.ATOM      Br                    7 CORE STATES
       CORE-FORCE in mRy/a.u. = |F|      Fx             Fy             Fz
:FCO003:   3.ATOM     82.483115154373    -70.893961584624     42.160532449287      0.000000000000

:1S 003: 1S                -977.915233888 Ry
:2S 003: 2S                -126.709592071 Ry
:2PP003: 2P*               -114.040276426 Ry
:2P 003: 2P                -110.548802436 Ry
:3S 003: 3S                 -16.877568994 Ry
:3PP003: 3P*                -12.473000347 Ry
:3P 003: 3P                 -11.970702832 Ry

        4.ATOM      Br                    7 CORE STATES
       CORE-FORCE in mRy/a.u. = |F|      Fx             Fy             Fz
:FCO004:   4.ATOM    112.701278599391     76.883050995501     63.084281014368     53.018375649023

:1S 004: 1S                -977.914241834 Ry
:2S 004: 2S                -126.708589037 Ry
:2PP004: 2P*               -114.039274832 Ry
:2P 004: 2P                -110.547800616 Ry
:3S 004: 3S                 -16.876551572 Ry
:3PP004: 3P*                -12.471982520 Ry
:3P 004: 3P                 -11.969684535 Ry
:CINT001 Core Integral Atom   1   67.995200
:CINT002 Core Integral Atom   2   45.995285
:CINT003 Core Integral Atom   3   17.999988
:CINT004 Core Integral Atom   4   17.999988

       DENSITY AT NUCLEUS
        JATOM        VALENCE       SEMI-CORE          CORE           TOTAL
:RTO001:   1     2059.657491        0.000000  9911370.679467  9913430.336959
:RTO002:   2      321.538954        0.000000   438171.671565   438493.210519
:RTO003:   3       72.170850        0.000000    45839.372822    45911.543672
:RTO004:   4       72.162954        0.000000    45839.373625    45911.536579
     
       CHARGES OF NEW CHARGE DENSITY
:NTO   : INTERSTITIAL CHARGE =    35.491172
:NPC   : PW Pseudocharge     =   102.508299
:NTO001: CHARGE SPHERE  1    =    79.516395
:NTO002: CHARGE SPHERE  2    =    52.324627
:NTO003: CHARGE SPHERE  3    =    33.759594
:NTO004: CHARGE SPHERE  4    =    33.758517

:NEC01: NUCLEAR AND ELECTRONIC CHARGE    968.00000   967.96177
     
       CHARGES OF OLD CHARGE DENSITY
:OTO   : INTERSTITIAL CHARGE =    35.528675
:OPC   : PW Pseudocharge     =   102.616908
:OTO001: CHARGE SPHERE  1    =    79.516377
:OTO002: CHARGE SPHERE  2    =    52.324599
:OTO003: CHARGE SPHERE  3    =    33.759669
:OTO004: CHARGE SPHERE  4    =    33.758593

:NEC02: NUCLEAR AND ELECTRONIC CHARGE    968.00000   968.00000
     
       CONVERGENCE TEST
:DTO001: DIFFERENCE IN SPHERE  1 =  0.0002345
:DTO002: DIFFERENCE IN SPHERE  2 =  0.0000861
:DTO003: DIFFERENCE IN SPHERE  3 =  0.0000974
:DTO004: DIFFERENCE IN SPHERE  4 =  0.0000975

:DIS  :  CHARGE DISTANCE       ( 0.0002345 for atom    1 spin 1)      0.0001226
 PW Mixed is         2247
 
******************************************************
* MULTISECANT MIXING VER9 RELEASE 10.4.0              *
* Standard Mode with controls                        *
* Fixed density scale                                *
* Regularization       1.000E-04                     *
* Trust Upper Limit    5.000E+00                     *
* Max Number of Memory Steps    8                    *
******************************************************
 
:PWTMP   3.9481E+03  2.5000E+03  5.2571E+03
:PLANE:  PW TOTAL      8.0734 DISTAN   7.78E-04  9.64E-03 %
:CHARG:  CLM/ATOM   1115.9469 DISTAN   1.77E-04  1.58E-05 %
 
Step History
        DMIX         DMIXT        Red     Pred      Trust     Lambda    MagRel    MagAbs     Beta
  2   2.5000E-02   2.5000E-02  3.67E-01  1.00E+00 -1.00E+01  1.00E+00  2.50E-02  9.00E-02  1.00E+00
  3   4.3059E-02   4.3059E-02  8.38E-01  1.00E+00 -1.00E+01  1.08E-01  4.31E-02  5.69E-02  1.00E+00
  4   1.0765E-01   1.0765E-01  8.31E-01  1.00E+00  3.21E-01  1.28E+00  1.08E-01  1.19E-01  9.96E-01
  5   2.4691E-01   1.4954E-01  7.11E-01  7.81E-01  6.00E-01  1.25E+00  2.27E-01  2.09E-01  1.00E+00
  6   3.5000E-01   2.8094E-01  4.66E-01  5.20E-01  1.34E+00  1.08E+00  4.76E-01  3.11E-01  1.00E+00
  7   3.5000E-01   3.5000E-01  7.36E-02  1.61E-01  3.78E+00  8.08E-01  9.79E-01  2.99E-01  1.00E+00
  8   2.7755E-01   2.7755E-01  4.94E-01  6.34E-01  1.50E+01  1.12E+00  4.92E-01  1.11E-02  1.00E+00
  9   3.5000E-01   3.5000E-01  3.14E-01  6.73E-01  1.88E+01  8.73E-01  6.52E-01  7.23E-03  1.00E+00
 10   3.5000E-01   3.5000E-01 -1.00E+00  4.79E-01  2.25E+01  1.00E+00  7.59E-01  2.64E-03  1.00E+00
:JACOBIANS    2.360E+00   1.959E+00
  
:NORMS:  1/Froebius, Min, Max, Used   0.8956E+00  0.6763E+00  0.1016E+01  0.9360E+00
:INFO :  Number of Memory Steps    8 Skipping    1
:INFO :  SLambda=    1.0475057775  Max    1.0475057775
:PREDicted Charge, CTotal, PW Trust    3.153E-04   8.529E-04   2.225E-03
:PREDicted DMix, Beta, BLim   6.8696E-01  1.2639E+00  6.1790E+00

Eigenvalues, unscaled except for SY+YY
   #     SY Real        SY Imag          SS             YY         SY+YY Real      SY+YY Imag
   1   3.835331E+00   0.000000E+00   4.082100E+00   4.659454E+00   8.657864E+00   0.000000E+00
   2   2.159056E+00   0.000000E+00   1.886858E+00   2.445524E+00   4.719109E+00   0.000000E+00
   3   2.882427E-01   0.000000E+00   2.680676E-01   4.598926E-01   7.310205E-01   0.000000E+00
   4   2.492414E-01   0.000000E+00   1.476701E-01   3.172654E-01   6.085829E-01   0.000000E+00
   5   6.233954E-02   0.000000E+00   3.027104E-02   1.131564E-01   1.861202E-01   0.000000E+00
   6   2.018089E-03   0.000000E+00   1.220812E-03   3.479461E-03   5.590108E-03   0.000000E+00
   7   7.218890E-04   0.000000E+00   3.376935E-04   1.216410E-03   2.045661E-03   0.000000E+00
   8   3.533668E-06   0.000000E+00   1.100428E-06   1.131740E-05   1.508329E-05   0.000000E+00
 
:INFO :  Singular value  8.669E+00 Weight  1.000E+00 Projection -6.007E-05
:INFO :  Singular value  4.716E+00 Weight  1.000E+00 Projection  2.131E-04
:INFO :  Singular value  7.321E-01 Weight  1.000E+00 Projection -6.124E-04
:INFO :  Singular value  6.080E-01 Weight  1.000E+00 Projection -4.524E-04
:INFO :  Singular value  1.859E-01 Weight  1.000E+00 Projection  4.028E-04
:INFO :  Singular value  5.593E-03 Weight  9.931E-01 Projection  1.211E-02
:INFO :  Singular value  2.044E-03 Weight  9.506E-01 Projection -1.533E-02
:INFO :  Singular value  1.508E-05 Weight  1.047E-03 Projection  4.200E-05
:RANK :  ACTIVE   6.94/8  =  86.81 % ; YY RANK   6.86/8  =  85.69 %
 
:BLIM :  VZERO Control Off
:TRUST:  Step 2.25E+01  Charge 9.68E-02 (e) CTO  3.43E-01 (e) PW  1.05E+00 (e)
:DIRM :  MEMORY  8/8  SCALE   1.000 RED  0.30 PRED  0.48 NEXT  0.30 
:TRAVE:  Charge 4.68E-03 (e) CTO  1.61E-02 (e) PW  6.54E-02 (e)
:DIRP :  |MSR1|= 7.825E-04 |PRATT|= 7.783E-04 ANGLE=   6.3 DEGREES
:DIRQ :  |MSR1|= 6.152E-04 |PRATT|= 7.074E-04 ANGLE=  16.1 DEGREES
:DIRT :  |MSR1|= 9.954E-04 |PRATT|= 1.052E-03 ANGLE=  12.1 DEGREES
:MIX  :   MSE1   REGULARIZATION:  4.66E-04 GREED: 0.35000  Newton 1.00  0.9465                
     
       CHARGES OF MIXED CHARGE DENSITY
:CTO   : INTERSTITIAL CHARGE =    35.529300
:CPC   : PW Pseudocharge     =   102.618965
:CTO001: CHARGE SPHERE  1    =    79.516449
:CTO002: CHARGE SPHERE  2    =    52.324639
:CTO003: CHARGE SPHERE  3    =    33.759579
:CTO004: CHARGE SPHERE  4    =    33.758504

:NEC03: NUCLEAR AND ELECTRONIC CHARGE    968.00000   968.00000

PW CHANGE     H    K    L      Current       Change    Residue
:PTO001:      0    0    0  2.62785513E-02  5.099E-07  4.815E-07
:PTO006:     -1    0   -1 -2.35854322E-03 -1.256E-07 -1.326E-07
:PTO007:      0    0   -2  2.46039771E-03 -7.911E-07 -9.849E-07
:PTO008:     -1   -1    0  4.67489239E-03 -1.369E-06 -1.753E-06
:PTO009:     -1   -1   -1 -1.03670663E-02 -9.779E-07 -1.022E-06
:PTO012:      0   -2    0  6.70022938E-03  1.245E-06  1.066E-06
:PTO013:     -1   -1   -2  2.07987749E-02  5.660E-06  5.000E-06
:PTO014:     -2    0    0  6.67330652E-03  1.455E-06  1.303E-06
:PTO015:      0   -2   -1  5.64023974E-03  1.240E-06  1.253E-06
:PTO018:     -1   -2    0 -1.03166046E-02  3.953E-07  3.741E-07
:PTO019:     -2   -1    0  1.13269389E-02 -4.471E-07 -4.412E-07
:PTO021:     -1   -2   -1  1.17861255E-02 -6.387E-07 -6.429E-07

:ENE  : ********** TOTAL ENERGY IN Ry =      -292312.91658585

       TOTAL FORCE IN mRy/a.u. = |F|     Fx             Fy             Fz     with/without FOR in case.in2
:FOR001:   1.ATOM          0.000          0.000          0.000          0.000 partial forces
:FOR002:   2.ATOM          0.860         -0.406          0.759          0.000 partial forces
:FOR003:   3.ATOM         25.856         23.433        -10.929          0.000 partial forces
:FOR004:   4.ATOM         35.589        -24.018        -19.905        -17.132 partial forces
       TOTAL FORCE WITH RESPECT TO GLOBAL CARTESIAN COORDINATES:
:FCA001:   1.ATOM                         0.000          0.000          0.000 partial forces
:FCA002:   2.ATOM                        -0.406          0.759          0.000 partial forces
:FCA003:   3.ATOM                        23.433        -10.929          0.000 partial forces
:FCA004:   4.ATOM                       -24.018        -19.905        -17.132 partial forces
       TOTAL FORCE WITH RESPECT TO THE GLOBAL COORDINATE SYSTEM:
:FGL001:   1.ATOM                 0.000000000     0.000000000     0.000000000 partial forces
:FGL002:   2.ATOM                -0.405948872     0.758717051     0.000000000 partial forces
:FGL003:   3.ATOM                23.432572183   -10.928622811     0.000000000 partial forces
:FGL004:   4.ATOM               -24.018042602   -19.905256595   -17.131917524 partial forces
