
:LABEL1: Calculations in /home/cmueller/wien/FZU/src/perovskite/Ecore_10
:LABEL2: on cv036 at Fri Jun 21 09:12:06 PM CEST 2024
:LABEL3: using WIEN2k_19.1 (Release 25/6/2019) in /home/cmueller/WIENROOT
:LABEL4: using the command: run_lapw
 Flat Integration
 New Mode for Coulomb Integral
 Consistent 3/8+Simpson combinations
 Extension of core to zero
 LDM version in phi
 Fifth-order quadrature in outwin


            ---------
:ITE001:  1. ITERATION
            ---------

:NATO :    4 INDEPENDENT AND   20 TOTAL ATOMS IN UNITCELL
       SUBSTANCE: blebleble                                                   

       LATTICE                      = P   
:POT  : POTENTIAL OPTION EX_PBE EC_PBE VX_PBE VC_PBE
:LAT  : LATTICE CONSTANTS= 15.19415 15.66734 22.08372    1.571    1.571    1.571
:VOL  : UNIT CELL VOLUME =    5257.07306
       MODE OF CALCULATION IS       = RELA
       NON-SPINPOLARIZED CALCULATION
:IFFT  : FFT-parameters:  120  120  180 Factor: 2.00


   CONVERGENCE PARAMETER FOR PSEUDOCHARGE: NCON=  9
   MAXIMAL VALUE OF RMT(JATOM)*ABSK(NKK) : RK  =29.99804


:VKCOUL :  VK-COUL convergence: 0.423E-07
       ATOMNUMBER=  1 Pb         VCOUL-ZERO =  0.10897E+00
:EFG001:                        EFG         =     0.00590   *10**21  V / m**2
                               V20  TOT/SRF=     0.00113     0.00195
                               V22  TOT/SRF=    -0.00027    -0.00077
                               V22M TOT/SRF=    -0.00029    -0.00093
                               V21  TOT/SRF=     0.00242     0.00330
                               V21M TOT/SRF=    -0.00473    -0.00516

             -0.00092   -0.00029    0.00242       -0.00105    0.00000    0.00000
             -0.00029   -0.00038   -0.00473        0.00000    0.00590    0.00000
              0.00242   -0.00473    0.00130        0.00000    0.00000   -0.00485

         MAIN DIRECTIONS OF THE EFG   1.0000  0.3879 -0.5274
                                      0.5164 -0.7730  1.0000
                                      0.0112  1.0000  0.9776
:ANG001:  ANGLE WITH OLD X-AXIS =        33.2

:ETA001:                         ASYMM. ETA =     0.64411


       ATOMNUMBER=  2 Cs         VCOUL-ZERO = -0.49697E-01
:EFG002:                        EFG         =     0.00079   *10**21  V / m**2
                               V20  TOT/SRF=    -0.00038    -0.00033
                               V22  TOT/SRF=    -0.00031    -0.00059
                               V22M TOT/SRF=    -0.00049    -0.00143
                               V21  TOT/SRF=     0.00000     0.00000
                               V21M TOT/SRF=     0.00000     0.00000

             -0.00009   -0.00049    0.00000       -0.00036    0.00000    0.00000
             -0.00049    0.00053    0.00000        0.00000    0.00079    0.00000
              0.00000    0.00000   -0.00043        0.00000    0.00000   -0.00043

         MAIN DIRECTIONS OF THE EFG   1.0000 -0.5459  0.0000
                                      0.5459  1.0000  0.0000
                                      0.0000  0.0000  1.0000
:ANG002:  ANGLE WITH OLD X-AXIS =        28.6

:ETA002:                         ASYMM. ETA =     0.09356


       ATOMNUMBER=  3 Br         VCOUL-ZERO =  0.28031E+00
:EFG003:                        EFG         =    -0.02231   *10**21  V / m**2
                               V20  TOT/SRF=     0.01925     0.05961
                               V22  TOT/SRF=     0.00410     0.00562
                               V22M TOT/SRF=    -0.01042    -0.01150
                               V21  TOT/SRF=     0.00000     0.00000
                               V21M TOT/SRF=     0.00000     0.00000

             -0.00702   -0.01042    0.00000        0.00008    0.00000    0.00000
             -0.01042   -0.01521    0.00000        0.00000   -0.02231    0.00000
              0.00000    0.00000    0.02223        0.00000    0.00000    0.02223

         MAIN DIRECTIONS OF THE EFG   1.0000  0.6813  0.0000
                                     -0.6813  1.0000  0.0000
                                      0.0000  0.0000  1.0000
:ANG003:  ANGLE WITH OLD X-AXIS =        34.3

:ETA003:                         ASYMM. ETA =     0.99277


       ATOMNUMBER=  4 Br         VCOUL-ZERO =  0.28025E+00
:EFG004:                        EFG         =     0.02212   *10**21  V / m**2
                               V20  TOT/SRF=    -0.00625    -0.02554
                               V22  TOT/SRF=    -0.00319    -0.00440
                               V22M TOT/SRF=    -0.01622    -0.04902
                               V21  TOT/SRF=    -0.00456    -0.00425
                               V21M TOT/SRF=     0.00611     0.00781

              0.00042   -0.01622   -0.00456        0.02212    0.00000    0.00000
             -0.01622    0.00679    0.00611        0.00000   -0.01296    0.00000
             -0.00456    0.00611   -0.00722        0.00000    0.00000   -0.00916

         MAIN DIRECTIONS OF THE EFG  -0.8182  1.0000  0.2387
                                      1.0000  0.8580 -0.1399
                                      0.3353 -0.1186  1.0000
:ANG004:  ANGLE WITH OLD X-AXIS =       128.5

:ETA004:                         ASYMM. ETA =     0.17181


     HELLMANN-FEYNMAN-FORCE IN mRy/a.u. = |F|  Fx       Fy             Fz
:FHF001:   1.ATOM      0.000000000000      0.000000000000      0.000000000000      0.000000000000

     HELLMANN-FEYNMAN-FORCE IN mRy/a.u. = |F|  Fx       Fy             Fz
:FHF002:   2.ATOM     13.212661606233     13.207363767740      0.374124347533      0.000000000000

     HELLMANN-FEYNMAN-FORCE IN mRy/a.u. = |F|  Fx       Fy             Fz
:FHF003:   3.ATOM    220.113963888524    -93.045637347661   -199.480992751907      0.000000000000

     HELLMANN-FEYNMAN-FORCE IN mRy/a.u. = |F|  Fx       Fy             Fz
:FHF004:   4.ATOM    174.202709980683     55.580955909951    107.026757789216    125.708450876934

:FIT001: LUSE= 13 SIGMA OF V-XC FIT FOR ATOM  1  0.7571362E-03
:FIT001: LUSE= 13 SIGMA OF V-XC FIT FOR ATOM  1  0.7571362E-03
:FIT002: LUSE= 13 SIGMA OF V-XC FIT FOR ATOM  2  0.1645418E-04
:FIT002: LUSE= 13 SIGMA OF V-XC FIT FOR ATOM  2  0.1645418E-04
:FIT003: LUSE= 13 SIGMA OF V-XC FIT FOR ATOM  3  0.7450639E-03
:FIT003: LUSE= 13 SIGMA OF V-XC FIT FOR ATOM  3  0.7450639E-03
:FIT004: LUSE= 13 SIGMA OF V-XC FIT FOR ATOM  4  0.6626845E-03
:FIT004: LUSE= 13 SIGMA OF V-XC FIT FOR ATOM  4  0.6626845E-03
:DEN  : DENSITY INTEGRAL  =       -114061.79163689   (Ry)
       ELS_POTENTIAL_AT Z=0 and Z=0.5:  -0.57564  -0.57564
       ELS_POTENTIAL_AT Y=0 and Y=0.5:  -0.47943  -0.47943
:VZERO:v0,v0c,v0x  -1.32226  -0.57564  -0.74662 v5,v5c,v5x  -1.32226  -0.57564  -0.74662
:VZERY:v0,v0c,v0x  -1.13920  -0.47943  -0.65976 v5,v5c,v5x  -1.13920  -0.47943  -0.65976
:VZERX:v0,v0c,v0x  -1.13400  -0.48141  -0.65258 v5,v5c,v5x  -1.13400  -0.48141  -0.65258
:LMAX-WF:   10   Non-Spherical LMAX:   4

          ATOMIC SPHERE DEPENDENT PARAMETERS FOR ATOM  Pb        
:e__0001: OVERALL ENERGY PARAMETER IS    0.3000
          OVERALL BASIS SET ON ATOM IS LAPW
:E1_0001: E( 1)=    0.3000
             APW+lo
:E1_0001: E( 1)=   -5.6297   E(BOTTOM)=   -5.650   E(TOP)=   -5.610  3  3   112
             LOCAL ORBITAL
:E3_0001: E( 3)=    0.3000
             APW+lo
:E3_0001: E( 3)=   -9.0666   E(BOTTOM)=   -9.067   E(TOP)=   -9.067  1  1   112
             LOCAL ORBITAL
:E2_0001: E( 2)=    0.7000
             APW+lo
:E2_0001: E( 2)=   -0.9369   E(BOTTOM)=   -1.175   E(TOP)=   -0.699  2  3   123
             LOCAL ORBITAL
:E0_0001: E( 0)=    0.3000
             APW+lo

          ATOMIC SPHERE DEPENDENT PARAMETERS FOR ATOM  Cs        
:e__0002: OVERALL ENERGY PARAMETER IS    0.3000
          OVERALL BASIS SET ON ATOM IS LAPW
:E2_0002: E( 2)=    0.3000
             APW+lo
:E2_0002: E( 2)=   -4.8572   E(BOTTOM)=   -4.869   E(TOP)=   -4.846  1  2   120
             LOCAL ORBITAL
:E0_0002: E( 0)=    0.7000
             APW+lo
:E0_0002: E( 0)=   -1.3662   E(BOTTOM)=   -2.049   E(TOP)=   -0.683  4  5   169
             LOCAL ORBITAL
:E1_0002: E( 1)=    0.7000
             APW+lo
:E1_0002: E( 1)=   -0.1934   E(BOTTOM)=   -1.166   E(TOP)=    0.779  3  4   199
             LOCAL ORBITAL

          ATOMIC SPHERE DEPENDENT PARAMETERS FOR ATOM  Br        
:e__0003: OVERALL ENERGY PARAMETER IS    0.3000
          OVERALL BASIS SET ON ATOM IS LAPW
:E2_0003: E( 2)=    0.3000
             APW+lo
:E2_0003: E( 2)=   -4.3424   E(BOTTOM)=   -4.346   E(TOP)=   -4.339  1  1   115
             LOCAL ORBITAL
:E0_0003: E( 0)=    0.7000
             APW+lo
:E0_0003: E( 0)=   -0.9471   E(BOTTOM)=   -1.512   E(TOP)=   -0.382  3  4   158
             LOCAL ORBITAL
:E1_0003: E( 1)=    0.3000
             APW+lo

          ATOMIC SPHERE DEPENDENT PARAMETERS FOR ATOM  Br        
:e__0004: OVERALL ENERGY PARAMETER IS    0.3000
          OVERALL BASIS SET ON ATOM IS LAPW
:E2_0004: E( 2)=    0.3000
             APW+lo
:E2_0004: E( 2)=   -4.3426   E(BOTTOM)=   -4.346   E(TOP)=   -4.339  1  1   119
             LOCAL ORBITAL
:E0_0004: E( 0)=    0.7000
             APW+lo
:E0_0004: E( 0)=   -0.9473   E(BOTTOM)=   -1.512   E(TOP)=   -0.382  3  4   153
             LOCAL ORBITAL
:E1_0004: E( 1)=    0.3000
             APW+lo

       K=   0.04545   0.04545   0.07143            1
:RKM  : MATRIX SIZE  2307LOs: 376  RKM= 7.00  WEIGHT= 8.00  PGR:    
       EIGENVALUES ARE:
:EIG00001:      -9.0665971   -9.0665968   -9.0665967   -9.0665965   -9.0665948
:EIG00006:      -9.0665947   -9.0665942   -9.0665940   -9.0665776   -9.0665771
:EIG00011:      -9.0665768   -9.0665767   -9.0665620   -9.0665618   -9.0665617
:EIG00016:      -9.0665615   -9.0665461   -9.0665457   -9.0665455   -9.0665452
:EIG00021:      -9.0664986   -9.0664984   -9.0664982   -9.0664980   -9.0664955
:EIG00026:      -9.0664955   -9.0664954   -9.0664952   -5.6260236   -5.6260209
:EIG00031:      -5.6260150   -5.6260125   -5.6256973   -5.6256888   -5.6256849
:EIG00036:      -5.6256834   -5.6255207   -5.6255195   -5.6255113   -5.6255045
:EIG00041:      -4.8544147   -4.8544069   -4.8543957   -4.8543951   -4.8543920
:EIG00046:      -4.8543849   -4.8543814   -4.8543803   -4.8543765   -4.8543672
 
:EIG00051:      -4.8543599   -4.8543574   -4.8543431   -4.8543391   -4.8543226
:EIG00056:      -4.8543131   -4.8543109   -4.8543090   -4.8542977   -4.8542871
:EIG00061:      -4.3422846   -4.3422769   -4.3422741   -4.3422694   -4.3422651
:EIG00066:      -4.3422644   -4.3422602   -4.3422522   -4.3421761   -4.3421725
:EIG00071:      -4.3421652   -4.3421601   -4.3420072   -4.3420031   -4.3419988
:EIG00076:      -4.3419939   -4.3419925   -4.3419907   -4.3419841   -4.3419725
:EIG00081:      -4.3419527   -4.3419427   -4.3419344   -4.3419301   -4.3419275
:EIG00086:      -4.3419260   -4.3419250   -4.3419172   -4.3419149   -4.3419108
:EIG00091:      -4.3419053   -4.3419012   -4.3416395   -4.3416352   -4.3416300
:EIG00096:      -4.3416253   -4.3414995   -4.3414979   -4.3414905   -4.3414903
 
:EIG00101:      -4.3414837   -4.3414804   -4.3414768   -4.3414707   -4.3414595
:EIG00106:      -4.3414521   -4.3414438   -4.3414406   -4.3414402   -4.3414371
:EIG00111:      -4.3414301   -4.3414290   -4.3413186   -4.3413122   -4.3413091
:EIG00116:      -4.3413057   -4.3412457   -4.3412444   -4.3412397   -4.3412334
:EIG00121:      -1.3724538   -1.3722887   -1.3721047   -1.3720007   -0.9680622
:EIG00126:      -0.9679015   -0.9678196   -0.9675350   -0.9674602   -0.9663330
:EIG00131:      -0.9486593   -0.9484192   -0.9481223   -0.9479886   -0.9476239
:EIG00136:      -0.9472029   -0.9032524   -0.9031181   -0.9026827   -0.8964919
:EIG00141:      -0.8963527   -0.8962920   -0.8962161   -0.8961468   -0.8960843
:EIG00146:      -0.8957024   -0.8956742   -0.8955031   -0.8954587   -0.8953149
 
:EIG00151:      -0.8951666   -0.8928400   -0.8812524   -0.8701361   -0.8698411
:EIG00156:      -0.8693015   -0.4146079   -0.4122532   -0.4118078   -0.4104805
:EIG00161:      -0.4096962   -0.4093099   -0.4088006   -0.4078140   -0.4076234
:EIG00166:      -0.4073958   -0.4069192   -0.4062014   -0.4054468   -0.3660113
:EIG00171:      -0.3254571   -0.2640838   -0.1484052   -0.1475300   -0.1445383
:EIG00176:      -0.1404498   -0.1386153   -0.1296441   -0.0987650   -0.0810653
:EIG00181:      -0.0780723   -0.0765695   -0.0751830   -0.0680671   -0.0592618
:EIG00186:      -0.0537752   -0.0514998   -0.0489479   -0.0461460   -0.0438084
:EIG00191:      -0.0425815   -0.0406330   -0.0400297   -0.0387029   -0.0321137
:EIG00196:      -0.0272933   -0.0268007   -0.0263424   -0.0248689   -0.0234668
 
:EIG00201:      -0.0222546   -0.0199770   -0.0183699   -0.0181573   -0.0002352
:EIG00206:       0.0561505    0.1047867    0.1584418    0.3395887    0.3433226
:EIG00211:       0.3470896    0.3720635    0.3853291    0.4029164    0.4041320
:EIG00216:       0.4831585    0.4888185    0.4963540    0.5011167    0.5307454
:EIG00221:       0.5319060    0.5364341    0.5449045    0.5484237    0.5499317
:EIG00226:       0.5523268    0.5575901    0.5588808    0.5742430    0.5778748
:EIG00231:       0.5781213    0.5851911    0.5995374    0.6040400    0.6070630
:EIG00236:       0.6137965    0.6145922    0.6195489    0.6220829    0.6304915
:EIG00241:       0.6366300    0.6415129    0.6494677    0.6576393    0.6596977
:EIG00246:       0.6761354    0.6826130    0.6911997    0.6988429    0.7029287
 
:EIG00251:       0.7161458    0.7328848    0.7431308    0.7501662    0.7575759
:EIG00256:       0.7605293    0.7627025    0.7680271    0.7773946    0.7871984
:EIG00261:       0.7882072    0.7927157    0.7957918    0.8336703    0.8523275
:EIG00266:       0.8579058    0.8609255    0.8655319    0.8666374    0.8696414
:EIG00271:       0.8733756    0.8831442    0.8975981    0.8995156    0.9099924
:EIG00276:       0.9256284    0.9381659    0.9454506    0.9531734    0.9578063
:EIG00281:       0.9595851    0.9693724    0.9799395    0.9857872    0.9966954
:EIG00286:       0.9987139    1.0097693    1.0136089    1.0149112    1.0181462
:EIG00291:       1.0264262    1.0283280    1.0416530    1.0579444    1.0656214
:EIG00296:       1.0731108    1.0788161    1.0863141    1.0881113    1.0912920
 
:EIG00301:       1.0948799    1.0999649    1.1024211    1.1053793    1.1094802
:EIG00306:       1.1138014    1.1185524    1.1260015    1.1271291    1.1332999
:EIG00311:       1.1362638    1.1415968    1.1473787    1.1507416    1.1560803
:EIG00316:       1.1620152    1.1653826    1.1702198    1.1715931    1.1733779
:EIG00321:       1.1790949    1.1829854    1.1843839    1.1879141    1.1936693
:EIG00326:       1.1952494    1.2005544    1.2045941    1.2145841    1.2209989
:EIG00331:       1.2237923    1.2266935    1.2305471    1.2352372    1.2402587
:EIG00336:       1.2409079    1.2488697    1.2507417    1.2555549    1.2617166
:EIG00341:       1.2693262    1.2749770    1.2811583    1.2842599    1.2884918
:EIG00346:       1.2953537    1.3091040    1.3127134    1.3158455    1.3171829
 
:EIG00351:       1.3238648    1.3285207    1.3404089    1.3416919    1.3573204
:EIG00356:       1.3612909    1.3689614    1.3710044    1.3790988    1.3825267
:EIG00361:       1.3871614    1.3902397    1.4015679    1.4076475    1.4080659
:EIG00366:       1.4177977    1.4222221    1.4281952    1.4318376    1.4352390
:EIG00371:       1.4420978    1.4446769    1.4514041    1.4549476    1.4648802
:EIG00376:       1.4666998    1.4702384    1.4722401    1.4771272    1.4807493
:EIG00381:       1.4862842    1.4901576    1.4976489    1.4994035    1.5013102
:EIG00386:       1.5089113    1.5145084    1.5180975    1.5225943    1.5266410
:EIG00391:       1.5275348    1.5311389    1.5411315    1.5436136    1.5515179
:EIG00396:       1.5615846    1.5636551    1.5744183    1.5806726    1.5844409
 
:EIG00401:       1.5892083    1.5952131    1.6093812    1.6119006    1.6229409
:EIG00406:       1.6265266    1.6359015    1.6364297    1.6425181    1.6532741
:EIG00411:       1.6571646    1.6591910    1.6639250    1.6731340    1.6760305
:EIG00416:       1.6780351    1.6781855    1.6877418    1.6938806    1.7083590
:EIG00421:       1.7092052    1.7136577    1.7195222    1.7237200    1.7261901
:EIG00426:       1.7307039    1.7350273    1.7395289    1.7455002    1.7480935
:EIG00431:       1.7514604    1.7562731    1.7620264    1.7644297    1.7699778
:EIG00436:       1.7738787    1.7870890    1.7887725    1.7926546    1.7955104
:EIG00441:       1.8053826    1.8080791    1.8159253    1.8204574    1.8220128
:EIG00446:       1.8290234    1.8290973    1.8321932    1.8365994    1.8412547
 
:EIG00451:       1.8441399    1.8473451    1.8547143    1.8644253    1.8764820
:EIG00456:       1.8813169    1.8850884    1.8864657    1.8984918    1.8997265
:EIG00461:       1.9022766    1.9088534    1.9141027    1.9177376    1.9225512
:EIG00466:       1.9272619    1.9329827    1.9372085    1.9413219    1.9448324
:EIG00471:       1.9506996    1.9544120    1.9612742    1.9616872    1.9709715
:EIG00476:       1.9774901    1.9808874    1.9855270    1.9948605
       ********************************************************

:KPT   :      NUMBER OF K-POINTS:   144
       Insulator, EF-inconsistency corrected
:GAP (global)   :  0.181147 Ry =     2.465 eV (accurate value if proper k-mesh)
         Bandranges (emin - emax) and occupancy:
:BAN00198: 198   -0.036464   -0.025124  2.00000000
:BAN00199: 199   -0.033431   -0.024869  2.00000000
:BAN00200: 200   -0.033431   -0.023467  2.00000000
:BAN00201: 201   -0.029098   -0.021511  2.00000000
:BAN00202: 202   -0.028256   -0.019446  2.00000000
:BAN00203: 203   -0.023375   -0.013913  2.00000000
:BAN00204: 204   -0.023315   -0.013913  2.00000000
:BAN00205: 205   -0.000235    0.067223  2.00000000
:BAN00206: 206    0.010535    0.068989  2.00000000
:BAN00207: 207    0.040945    0.120533  2.00000000
:BAN00208: 208    0.040945    0.158442  2.00000000
:BAN00209: 209    0.339589    0.441292  0.00000000
:BAN00210: 210    0.343323    0.441292  0.00000000
:BAN00211: 211    0.347090    0.447694  0.00000000
:BAN00212: 212    0.364965    0.447694  0.00000000
:BAN00213: 213    0.381552    0.465486  0.00000000
        Energy to separate low and high energystates:   -0.46461


:NOE  : NUMBER OF ELECTRONS          =  416.000

:FER  : F E R M I - ENERGY(TETRAH.M.)=   0.1584417696
:GMA  : POTENTIAL AND CHARGE CUT-OFF  12.00 Ry**.5

:POS001: ATOM   -1 X,Y,Z = 0.50000 0.50000 0.50000  MULT= 4  ZZ= 82.000  Pb        

       LMMAX 28
       LM=   0 0  2 0  2 1 -2 1  2 2 -2 2  4 0  4 1 -4 1  4 2 -4 2  4 3 -4 3  4 4 -4 4  6 0  6 1
        -6 1  6 2 -6 2  6 3 -6 3  6 4 -6 4  6 5 -6 5  6 6 -6 6

:CHA001: TOTAL VALENCE CHARGE INSIDE SPHERE   1 =  31.3055    (RMT=  2.5000 )
:PCS001: PARTIAL CHARGES SPHERE =  1 S,P,D,F,PX,PY,PZ,D-Z2,D-X2Y2,D-XY,D-XZ,D-YZ 
:QTL001: 1.3301 6.2580 9.702714.0125 2.0851 2.0858 2.0870 1.9483 1.9366 1.9470 1.9358 1.9350
        Q-s-low E-s-low   Q-p-low E-p-low   Q-d-low E-d-low   Q-f-low E-f-low
:EPL001:  0.0177 -0.9545    6.0037 -5.6190    9.6271 -0.8979   14.0010 -9.0660
        Q-s-hi  E-s-hi    Q-p-hi  E-p-hi    Q-d-hi  E-d-hi    Q-f-hi  E-f-hi 
:EPH001:  1.3124 -0.2171    0.2542 -0.0907    0.0756 -0.0566    0.0115 -0.0584

                      QXX         QXY         QYY         QZZ       UP TO R
:VZZ001:             0.60371     0.63176     0.14793    -0.75164       2.500

:POS002: ATOM   -2 X,Y,Z = 0.48491 0.94655 0.25000  MULT= 4  ZZ= 55.000  Cs        

       LMMAX 28
       LM=   0 0  1 1 -1 1  2 0  2 2 -2 2  3 1 -3 1  3 3 -3 3  4 0  4 2 -4 2  4 4 -4 4  5 1 -5 1
         5 3 -5 3  5 5 -5 5  6 0  6 2 -6 2  6 4 -6 4  6 6 -6 6

:CHA002: TOTAL VALENCE CHARGE INSIDE SPHERE   2 =  16.2947    (RMT=  2.5000 )
:PCS002: PARTIAL CHARGES SPHERE =  2 S,P,D,F,PX,PY,PZ,D-Z2,D-X2Y2,D-XY,D-XZ,D-YZ 
:QTL002: 1.7960 4.487510.0093 0.0018 1.4951 1.4960 1.4964 2.0014 2.0022 2.0011 2.0019 2.0026
        Q-s-low E-s-low   Q-p-low E-p-low   Q-d-low E-d-low   Q-f-low E-f-low
:EPL002:  1.7865 -1.3718    0.0022 -0.9454    9.9946 -4.8543    0.0001 -1.0407
        Q-s-hi  E-s-hi    Q-p-hi  E-p-hi    Q-d-hi  E-d-hi    Q-f-hi  E-f-hi 
:EPH002:  0.0095 -0.0770    4.4853 -0.3968    0.0147 -0.0520    0.0017 -0.0449

                      QXX         QXY         QYY         QZZ       UP TO R
:VZZ002:             0.54829     1.59504    -0.11909    -0.42920       2.500

:POS003: ATOM   -3 X,Y,Z = 0.56000 0.50750 0.25000  MULT= 4  ZZ= 35.000  Br        

       LMMAX 28
       LM=   0 0  1 1 -1 1  2 0  2 2 -2 2  3 1 -3 1  3 3 -3 3  4 0  4 2 -4 2  4 4 -4 4  5 1 -5 1
         5 3 -5 3  5 5 -5 5  6 0  6 2 -6 2  6 4 -6 4  6 6 -6 6

:CHA003: TOTAL VALENCE CHARGE INSIDE SPHERE   3 =  15.9553    (RMT=  2.5000 )
:PCS003: PARTIAL CHARGES SPHERE =  3 S,P,D,F,PX,PY,PZ,D-Z2,D-X2Y2,D-XY,D-XZ,D-YZ 
:QTL003: 1.7970 4.141310.0141 0.0024 1.3988 1.4027 1.3397 2.0109 2.0004 2.0002 2.0017 2.0009
        Q-s-low E-s-low   Q-p-low E-p-low   Q-d-low E-d-low   Q-f-low E-f-low
:EPL003:  1.7662 -0.9479    0.0063 -0.9038   10.0001 -4.3411    0.0006 -0.9256
        Q-s-hi  E-s-hi    Q-p-hi  E-p-hi    Q-d-hi  E-d-hi    Q-f-hi  E-f-hi 
:EPH003:  0.0308 -0.2384    4.1350 -0.0589    0.0140 -0.1100    0.0018 -0.1584

                      QXX         QXY         QYY         QZZ       UP TO R
:VZZ003:            -5.13921    -0.36329    -6.35666    11.49586       2.500

:POS004: ATOM   -4 X,Y,Z = 0.19962 0.70227 0.46752  MULT= 8  ZZ= 35.000  Br        

       LMMAX 49

:CHA004: TOTAL VALENCE CHARGE INSIDE SPHERE   4 =  15.9560    (RMT=  2.5000 )
:PCS004: PARTIAL CHARGES SPHERE =  4 S,P,D,F,PX,PY,PZ,D-Z2,D-X2Y2,D-XY,D-XZ,D-YZ 
:QTL004: 1.7968 4.142710.0137 0.0024 1.3729 1.3699 1.3999 2.0027 2.0019 2.0073 2.0008 2.0009
        Q-s-low E-s-low   Q-p-low E-p-low   Q-d-low E-d-low   Q-f-low E-f-low
:EPL004:  1.7666 -0.9479    0.0061 -0.9027   10.0000 -4.3413    0.0006 -0.9283
        Q-s-hi  E-s-hi    Q-p-hi  E-p-hi    Q-d-hi  E-d-hi    Q-f-hi  E-f-hi 
:EPH004:  0.0301 -0.2387    4.1366 -0.0590    0.0136 -0.1123    0.0018 -0.1531

                      QXX         QXY         QYY         QZZ       UP TO R
:VZZ004:             2.16534    -8.20696     3.11544    -5.28078       2.500

:CHA  : TOTAL VALENCE CHARGE INSIDE UNIT CELL =     416.000000

:SUM  : SUM OF EIGENVALUES =       -1443.730714558


        1.ATOM      Pb                   15 CORE STATES
:1S 001: 1S               -6465.856478861 Ry
:2S 001: 2S               -1154.903306790 Ry
:2PP001: 2P*              -1108.893817011 Ry
:2P 001: 2P                -947.935173972 Ry
:3S 001: 3S                -276.693360124 Ry
:3PP001: 3P*               -255.968010997 Ry
:3P 001: 3P                -220.054280836 Ry
:3DD001: 3D*               -186.062537820 Ry
:3D 001: 3D                -178.422247597 Ry
:4S 001: 4S                 -62.128808944 Ry
:4PP001: 4P*                -53.163996678 Ry
:4P 001: 4P                 -44.373404565 Ry
:4DD001: 4D*                -29.792605091 Ry
:4D 001: 4D                 -28.152442018 Ry
:5S 001: 5S                  -9.904885030 Ry

        2.ATOM      Cs                   12 CORE STATES
       CORE-FORCE in mRy/a.u. = |F|      Fx             Fy             Fz
:FCO002:   2.ATOM      8.842542940986     -8.835064566040     -0.363592872713      0.000000000000

:1S 002: 1S               -2628.589836052 Ry
:2S 002: 2S                -411.663315835 Ry
:2PP002: 2P*               -387.226059542 Ry
:2P 002: 2P                -361.334303543 Ry
:3S 002: 3S                 -85.113558932 Ry
:3PP002: 3P*                -74.910137637 Ry
:3P 002: 3P                 -69.948285401 Ry
:3DD002: 3D*                -52.028973622 Ry
:3D 002: 3D                 -50.975649671 Ry
:4S 002: 4S                 -15.579493186 Ry
:4PP002: 4P*                -11.918652724 Ry
:4P 002: 4P                 -10.906723180 Ry

        3.ATOM      Br                    7 CORE STATES
       CORE-FORCE in mRy/a.u. = |F|      Fx             Fy             Fz
:FCO003:   3.ATOM    113.798211866841     46.855090037281    103.704549377974      0.000000000000

:1S 003: 1S                -977.960077086 Ry
:2S 003: 2S                -126.757186875 Ry
:2PP003: 2P*               -114.087264181 Ry
:2P 003: 2P                -110.595877631 Ry
:3S 003: 3S                 -16.930995736 Ry
:3PP003: 3P*                -12.526450390 Ry
:3P 003: 3P                 -12.024239283 Ry

        4.ATOM      Br                    7 CORE STATES
       CORE-FORCE in mRy/a.u. = |F|      Fx             Fy             Fz
:FCO004:   4.ATOM     88.726814992281    -27.631481055139    -54.539348517191    -64.299365601025

:1S 004: 1S                -977.960247445 Ry
:2S 004: 2S                -126.757357083 Ry
:2PP004: 2P*               -114.087434426 Ry
:2P 004: 2P                -110.596047870 Ry
:3S 004: 3S                 -16.931164448 Ry
:3PP004: 3P*                -12.526618974 Ry
:3P 004: 3P                 -12.024407776 Ry
:CINT001 Core Integral Atom   1   47.999887
:CINT002 Core Integral Atom   2   35.999909
:CINT003 Core Integral Atom   3   17.999989
:CINT004 Core Integral Atom   4   17.999989

       DENSITY AT NUCLEUS
        JATOM        VALENCE       SEMI-CORE          CORE           TOTAL
:RTO001:   1     1927.888458        0.000000  9910093.485976  9912021.374434
:RTO002:   2      320.878739        0.000000   438170.878700   438491.757439
:RTO003:   3       73.645465        0.000000    45839.135817    45912.781282
:RTO004:   4       73.629384        0.000000    45839.135906    45912.765290
     
       CHARGES OF NEW CHARGE DENSITY
:NTO   : INTERSTITIAL CHARGE =    34.129774
:NPC   : PW Pseudocharge     =   103.560978
:NTO001: CHARGE SPHERE  1    =    79.305413
:NTO002: CHARGE SPHERE  2    =    52.294611
:NTO003: CHARGE SPHERE  3    =    33.955311
:NTO004: CHARGE SPHERE  4    =    33.955987

:NEC01: NUCLEAR AND ELECTRONIC CHARGE    968.00000   967.99902
     
       CHARGES OF OLD CHARGE DENSITY
:OTO   : INTERSTITIAL CHARGE =    36.640775
:OPC   : PW Pseudocharge     =   131.400754
:OTO001: CHARGE SPHERE  1    =    79.809567
:OTO002: CHARGE SPHERE  2    =    52.317982
:OTO003: CHARGE SPHERE  3    =    33.573161
:OTO004: CHARGE SPHERE  4    =    33.572536

:NEC02: NUCLEAR AND ELECTRONIC CHARGE    968.00000   968.02391
     
       CONVERGENCE TEST
:DTO001: DIFFERENCE IN SPHERE  1 =  0.6092628
:DTO002: DIFFERENCE IN SPHERE  2 =  0.0742543
:DTO003: DIFFERENCE IN SPHERE  3 =  0.1900903
:DTO004: DIFFERENCE IN SPHERE  4 =  0.1907605

:DIS  :  CHARGE DISTANCE       ( 0.6092628 for atom    1 spin 1)      0.2510257
 PW Mixed is         2247
 
******************************************************
* MULTISECANT MIXING VER9 RELEASE 10.4.0              *
* Standard Mode with controls                        *
* Fixed density scale                                *
* Regularization       1.000E-04                     *
* Trust Upper Limit    5.000E+00                     *
* Max Number of Memory Steps    8                    *
******************************************************
 
:PWTMP   3.9481E+03  2.5000E+03  5.2571E+03
:PLANE:  PW TOTAL     10.8628 DISTAN   3.44E+00  3.17E+01 %
:CHARG:  CLM/ATOM   1115.9684 DISTAN   3.50E-01  3.14E-02 %
 
Step History
        DMIX         DMIXT        Red     Pred      Trust     Lambda    MagRel    MagAbs     Beta
  1   3.5000E-02   3.5000E-02 -1.00E+00  1.00E+00 -1.00E+01  1.00E+00  3.50E-02  3.50E-02  1.00E+00
:INFO :  Note, Pratt in use
:TRUST:  Step 3.75E-02  Charge 7.50E-02 (e) CTO  4.43E-01 (e) PW  6.21E-01 (e)
:DIRM :  MEMORY  0/ 8 SCALE   1.000
Performing Pseudo Compensation
Final Pseudo Compensation Rescaling     1.00017E+00
:MIX  :   PRATT  REGULARIZATION:  1.00E-04 GREED: 0.02500                  
     
       CHARGES OF MIXED CHARGE DENSITY
:CTO   : INTERSTITIAL CHARGE =    36.554714
:CPC   : PW Pseudocharge     =   113.716662
:CTO001: CHARGE SPHERE  1    =    79.796963
:CTO002: CHARGE SPHERE  2    =    52.317398
:CTO003: CHARGE SPHERE  3    =    33.582715
:CTO004: CHARGE SPHERE  4    =    33.582123

:NEC03: NUCLEAR AND ELECTRONIC CHARGE    968.00000   968.00000

PW CHANGE     H    K    L      Current       Change    Residue
:PTO001:      0    0    0  2.85846086E-02 -3.359E-03 -5.752E-03
:PTO006:     -1    0   -1 -2.51533596E-03  2.696E-04  3.946E-04
:PTO007:      0    0   -2  3.61993288E-03 -1.838E-03 -3.215E-03
:PTO008:     -1   -1    0  6.89983209E-03 -3.802E-03 -6.510E-03
:PTO009:     -1   -1   -1 -1.09867578E-02  1.550E-03  2.194E-03
:PTO012:      0   -2    0  8.07943596E-03 -2.966E-03 -4.609E-03
:PTO013:     -1   -1   -2  2.61133412E-02 -1.123E-02 -1.796E-02
:PTO014:     -2    0    0  8.02967454E-03 -3.020E-03 -4.672E-03
:PTO015:      0   -2   -1  6.10805430E-03 -1.115E-03 -1.748E-03
:PTO018:     -1   -2    0 -1.09904299E-02  1.254E-03  1.572E-03
:PTO019:     -2   -1    0  1.20908358E-02 -1.410E-03 -1.775E-03
:PTO021:     -1   -2   -1  1.26154493E-02 -1.497E-03 -1.890E-03

:ENE  : ********** TOTAL ENERGY IN Ry =      -292309.89825299

       TOTAL FORCE IN mRy/a.u. = |F|     Fx             Fy             Fz     with/without FOR in case.in2
:FOR001:   1.ATOM          0.000          0.000          0.000          0.000 partial forces
:FOR002:   2.ATOM          4.372          4.372          0.011          0.000 partial forces
:FOR003:   3.ATOM        106.333        -46.191        -95.776          0.000 partial forces
:FOR004:   4.ATOM         85.482         27.949         52.487         61.409 partial forces
       TOTAL FORCE WITH RESPECT TO GLOBAL CARTESIAN COORDINATES:
:FCA001:   1.ATOM                         0.000          0.000          0.000 partial forces
:FCA002:   2.ATOM                         4.372          0.011          0.000 partial forces
:FCA003:   3.ATOM                       -46.191        -95.776          0.000 partial forces
:FCA004:   4.ATOM                        27.949         52.487         61.409 partial forces
       TOTAL FORCE WITH RESPECT TO THE GLOBAL COORDINATE SYSTEM:
:FGL001:   1.ATOM                 0.000000000     0.000000000     0.000000000 partial forces
:FGL002:   2.ATOM                 4.372299202     0.010531475     0.000000000 partial forces
:FGL003:   3.ATOM               -46.190547310   -95.776443374     0.000000000 partial forces
:FGL004:   4.ATOM                27.949474855    52.487409272    61.409085276 partial forces
 Flat Integration
 New Mode for Coulomb Integral
 Consistent 3/8+Simpson combinations
 Extension of core to zero
 LDM version in phi
 Fifth-order quadrature in outwin


            ---------
:ITE002:  2. ITERATION
            ---------

:NATO :    4 INDEPENDENT AND   20 TOTAL ATOMS IN UNITCELL
       SUBSTANCE: blebleble                                                   

       LATTICE                      = P   
:POT  : POTENTIAL OPTION EX_PBE EC_PBE VX_PBE VC_PBE
:LAT  : LATTICE CONSTANTS= 15.19415 15.66734 22.08372    1.571    1.571    1.571
:VOL  : UNIT CELL VOLUME =    5257.07306
       MODE OF CALCULATION IS       = RELA
       NON-SPINPOLARIZED CALCULATION
:IFFT  : FFT-parameters:  120  120  180 Factor: 2.00


   CONVERGENCE PARAMETER FOR PSEUDOCHARGE: NCON=  9
   MAXIMAL VALUE OF RMT(JATOM)*ABSK(NKK) : RK  =29.99804


:VKCOUL :  VK-COUL convergence: 0.234E-08
       ATOMNUMBER=  1 Pb         VCOUL-ZERO =  0.95998E-01
:EFG001:                        EFG         =     0.02722   *10**21  V / m**2
                               V20  TOT/SRF=    -0.01511     0.00190
                               V22  TOT/SRF=     0.00543    -0.00072
                               V22M TOT/SRF=     0.01551    -0.00085
                               V21  TOT/SRF=    -0.00403     0.00319
                               V21M TOT/SRF=    -0.01070    -0.00511

              0.01415    0.01551   -0.00403        0.02722    0.00000    0.00000
              0.01551    0.00329   -0.01070        0.00000   -0.00505    0.00000
             -0.00403   -0.01070   -0.01745        0.00000    0.00000   -0.02217

         MAIN DIRECTIONS OF THE EFG   1.0000 -0.9255 -0.0924
                                      0.7711  1.0000  0.4763
                                     -0.2749 -0.5618  1.0000
:ANG001:  ANGLE WITH OLD X-AXIS =        42.9

:ETA001:                         ASYMM. ETA =     0.62898


       ATOMNUMBER=  2 Cs         VCOUL-ZERO = -0.57460E-01
:EFG002:                        EFG         =     0.04609   *10**21  V / m**2
                               V20  TOT/SRF=    -0.00975    -0.00042
                               V22  TOT/SRF=     0.00808    -0.00052
                               V22M TOT/SRF=     0.03964    -0.00110
                               V21  TOT/SRF=     0.00000     0.00000
                               V21M TOT/SRF=     0.00000     0.00000

              0.01371    0.03964    0.00000        0.04609    0.00000    0.00000
              0.03964   -0.00244    0.00000        0.00000   -0.03482    0.00000
              0.00000    0.00000   -0.01126        0.00000    0.00000   -0.01126

         MAIN DIRECTIONS OF THE EFG   1.0000 -0.8168  0.0000
                                      0.8168  1.0000  0.0000
                                      0.0000  0.0000  1.0000
:ANG002:  ANGLE WITH OLD X-AXIS =        39.2

:ETA002:                         ASYMM. ETA =     0.51120


       ATOMNUMBER=  3 Br         VCOUL-ZERO =  0.27426E+00
:EFG003:                        EFG         =     0.31477   *10**21  V / m**2
                               V20  TOT/SRF=     0.27260     0.06291
                               V22  TOT/SRF=     0.01944     0.00570
                               V22M TOT/SRF=    -0.01946    -0.01138
                               V21  TOT/SRF=     0.00000     0.00000
                               V21M TOT/SRF=     0.00000     0.00000

             -0.13794   -0.01946    0.00000       -0.12987    0.00000    0.00000
             -0.01946   -0.17683    0.00000        0.00000   -0.18490    0.00000
              0.00000    0.00000    0.31477        0.00000    0.00000    0.31477

         MAIN DIRECTIONS OF THE EFG   1.0000  0.4145  0.0000
                                     -0.4145  1.0000  0.0000
                                      0.0000  0.0000  1.0000
:ANG003:  ANGLE WITH OLD X-AXIS =        22.5

:ETA003:                         ASYMM. ETA =     0.17480


       ATOMNUMBER=  4 Br         VCOUL-ZERO =  0.27429E+00
:EFG004:                        EFG         =     0.29762   *10**21  V / m**2
                               V20  TOT/SRF=    -0.12275    -0.02716
                               V22  TOT/SRF=    -0.01519    -0.00448
                               V22M TOT/SRF=    -0.22508    -0.05177
                               V21  TOT/SRF=    -0.02583    -0.00411
                               V21M TOT/SRF=     0.00676     0.00786

              0.05568   -0.22508   -0.02583        0.29762    0.00000    0.00000
             -0.22508    0.08606    0.00676        0.00000   -0.16423    0.00000
             -0.02583    0.00676   -0.14174        0.00000    0.00000   -0.13340

         MAIN DIRECTIONS OF THE EFG  -0.9378  1.0000 -0.4523
                                      1.0000  0.8754 -0.4947
                                      0.0705  0.8854  1.0000
:ANG004:  ANGLE WITH OLD X-AXIS =       130.5

:ETA004:                         ASYMM. ETA =     0.10359


     HELLMANN-FEYNMAN-FORCE IN mRy/a.u. = |F|  Fx       Fy             Fz
:FHF001:   1.ATOM      0.000000000000      0.000000000000      0.000000000000      0.000000000000

     HELLMANN-FEYNMAN-FORCE IN mRy/a.u. = |F|  Fx       Fy             Fz
:FHF002:   2.ATOM     12.812400179244     12.747335440974      1.289588115790      0.000000000000

     HELLMANN-FEYNMAN-FORCE IN mRy/a.u. = |F|  Fx       Fy             Fz
:FHF003:   3.ATOM    205.728591915293    -81.132200256641   -189.055070318057      0.000000000000

     HELLMANN-FEYNMAN-FORCE IN mRy/a.u. = |F|  Fx       Fy             Fz
:FHF004:   4.ATOM    153.799421619586     45.263682884910     94.477176709053    112.603393302777

:FIT001: LUSE= 13 SIGMA OF V-XC FIT FOR ATOM  1  0.7692040E-03
:FIT001: LUSE= 13 SIGMA OF V-XC FIT FOR ATOM  1  0.7692040E-03
:FIT002: LUSE= 13 SIGMA OF V-XC FIT FOR ATOM  2  0.1706770E-04
:FIT002: LUSE= 13 SIGMA OF V-XC FIT FOR ATOM  2  0.1706770E-04
:FIT003: LUSE= 13 SIGMA OF V-XC FIT FOR ATOM  3  0.7196232E-03
:FIT003: LUSE= 13 SIGMA OF V-XC FIT FOR ATOM  3  0.7196232E-03
:FIT004: LUSE= 13 SIGMA OF V-XC FIT FOR ATOM  4  0.6397787E-03
:FIT004: LUSE= 13 SIGMA OF V-XC FIT FOR ATOM  4  0.6397787E-03
:DEN  : DENSITY INTEGRAL  =       -114052.35028318   (Ry)
       ELS_POTENTIAL_AT Z=0 and Z=0.5:  -0.54549  -0.54549
       ELS_POTENTIAL_AT Y=0 and Y=0.5:  -0.45559  -0.45559
:VZERO:v0,v0c,v0x  -1.26713  -0.54549  -0.72165 v5,v5c,v5x  -1.26713  -0.54549  -0.72165
:VZERY:v0,v0c,v0x  -1.09511  -0.45559  -0.63952 v5,v5c,v5x  -1.09511  -0.45559  -0.63952
:VZERX:v0,v0c,v0x  -1.08802  -0.45515  -0.63287 v5,v5c,v5x  -1.08802  -0.45515  -0.63287
:LMAX-WF:   10   Non-Spherical LMAX:   4

          ATOMIC SPHERE DEPENDENT PARAMETERS FOR ATOM  Pb        
:e__0001: OVERALL ENERGY PARAMETER IS    0.1000
          OVERALL BASIS SET ON ATOM IS LAPW
:E1_0001: E( 1)=    0.1000
             APW+lo
:E1_0001: E( 1)=   -5.6472   E(BOTTOM)=   -5.667   E(TOP)=   -5.627  3  3   120
             LOCAL ORBITAL
:E3_0001: E( 3)=    0.1000
             APW+lo
:E3_0001: E( 3)=   -9.0866   E(BOTTOM)=   -9.087   E(TOP)=   -9.087  1  1   107
             LOCAL ORBITAL
:E2_0001: E( 2)=    0.5000
             APW+lo
:E2_0001: E( 2)=   -0.9532   E(BOTTOM)=   -1.190   E(TOP)=   -0.716  2  3   128
             LOCAL ORBITAL
:E0_0001: E( 0)=    0.1000
             APW+lo

          ATOMIC SPHERE DEPENDENT PARAMETERS FOR ATOM  Cs        
:e__0002: OVERALL ENERGY PARAMETER IS    0.1000
          OVERALL BASIS SET ON ATOM IS LAPW
:E2_0002: E( 2)=    0.1000
             APW+lo
:E2_0002: E( 2)=   -4.8656   E(BOTTOM)=   -4.877   E(TOP)=   -4.854  1  2   116
             LOCAL ORBITAL
:E0_0002: E( 0)=    0.5000
             APW+lo
:E0_0002: E( 0)=   -1.3743   E(BOTTOM)=   -2.057   E(TOP)=   -0.691  4  5   170
             LOCAL ORBITAL
:E1_0002: E( 1)=    0.5000
             APW+lo
:E1_0002: E( 1)=   -0.2014   E(BOTTOM)=   -1.173   E(TOP)=    0.771  3  4   194
             LOCAL ORBITAL

          ATOMIC SPHERE DEPENDENT PARAMETERS FOR ATOM  Br        
:e__0003: OVERALL ENERGY PARAMETER IS    0.1000
          OVERALL BASIS SET ON ATOM IS LAPW
:E2_0003: E( 2)=    0.1000
             APW+lo
:E2_0003: E( 2)=   -4.3444   E(BOTTOM)=   -4.348   E(TOP)=   -4.341  1  1   120
             LOCAL ORBITAL
:E0_0003: E( 0)=    0.5000
             APW+lo
:E0_0003: E( 0)=   -0.9510   E(BOTTOM)=   -1.517   E(TOP)=   -0.385  3  4   159
             LOCAL ORBITAL
:E1_0003: E( 1)=    0.1000
             APW+lo

          ATOMIC SPHERE DEPENDENT PARAMETERS FOR ATOM  Br        
:e__0004: OVERALL ENERGY PARAMETER IS    0.1000
          OVERALL BASIS SET ON ATOM IS LAPW
:E2_0004: E( 2)=    0.1000
             APW+lo
:E2_0004: E( 2)=   -4.3445   E(BOTTOM)=   -4.348   E(TOP)=   -4.341  1  1   121
             LOCAL ORBITAL
:E0_0004: E( 0)=    0.5000
             APW+lo
:E0_0004: E( 0)=   -0.9511   E(BOTTOM)=   -1.517   E(TOP)=   -0.385  3  4   151
             LOCAL ORBITAL
:E1_0004: E( 1)=    0.1000
             APW+lo

       K=   0.04545   0.04545   0.07143            1
:RKM  : MATRIX SIZE  2307LOs: 376  RKM= 7.00  WEIGHT= 8.00  PGR:    
       EIGENVALUES ARE:
:EIG00001:      -9.0866182   -9.0866179   -9.0866178   -9.0866176   -9.0866161
:EIG00006:      -9.0866160   -9.0866156   -9.0866154   -9.0865957   -9.0865952
:EIG00011:      -9.0865949   -9.0865948   -9.0865802   -9.0865801   -9.0865799
:EIG00016:      -9.0865798   -9.0865674   -9.0865671   -9.0865669   -9.0865666
:EIG00021:      -9.0865226   -9.0865224   -9.0865222   -9.0865220   -9.0865210
:EIG00026:      -9.0865209   -9.0865208   -9.0865206   -5.6434933   -5.6434906
:EIG00031:      -5.6434849   -5.6434821   -5.6431833   -5.6431740   -5.6431703
:EIG00036:      -5.6431687   -5.6429995   -5.6429983   -5.6429904   -5.6429832
:EIG00041:      -4.8627981   -4.8627952   -4.8627800   -4.8627787   -4.8627753
:EIG00046:      -4.8627730   -4.8627687   -4.8627613   -4.8627583   -4.8627532
 
:EIG00051:      -4.8627503   -4.8627486   -4.8627394   -4.8627284   -4.8627179
:EIG00056:      -4.8627087   -4.8627050   -4.8626938   -4.8626876   -4.8626729
:EIG00061:      -4.3442515   -4.3442440   -4.3442407   -4.3442403   -4.3442372
:EIG00066:      -4.3442370   -4.3442292   -4.3442287   -4.3442269   -4.3442245
:EIG00071:      -4.3442220   -4.3442154   -4.3439613   -4.3439474   -4.3439453
:EIG00076:      -4.3439436   -4.3439220   -4.3439136   -4.3439122   -4.3439078
:EIG00081:      -4.3439067   -4.3439045   -4.3438983   -4.3438862   -4.3438621
:EIG00086:      -4.3438565   -4.3438452   -4.3438390   -4.3438314   -4.3438295
:EIG00091:      -4.3438225   -4.3438186   -4.3436669   -4.3436617   -4.3436577
:EIG00096:      -4.3436520   -4.3432882   -4.3432879   -4.3432794   -4.3432792
 
:EIG00101:      -4.3432723   -4.3432690   -4.3432655   -4.3432600   -4.3432491
:EIG00106:      -4.3432398   -4.3432320   -4.3432290   -4.3432282   -4.3432256
:EIG00111:      -4.3432190   -4.3432166   -4.3432015   -4.3431950   -4.3431922
:EIG00116:      -4.3431887   -4.3431355   -4.3431344   -4.3431297   -4.3431232
:EIG00121:      -1.3804091   -1.3802468   -1.3800644   -1.3799613   -0.9759878
:EIG00126:      -0.9757403   -0.9756539   -0.9746344   -0.9734656   -0.9707124
:EIG00131:      -0.9527891   -0.9525848   -0.9524042   -0.9520973   -0.9516407
:EIG00136:      -0.9511982   -0.9194921   -0.9192949   -0.9187583   -0.9129593
:EIG00141:      -0.9128232   -0.9127601   -0.9126864   -0.9126115   -0.9125526
:EIG00146:      -0.9121702   -0.9121459   -0.9119852   -0.9119415   -0.9117948
 
:EIG00151:      -0.9116425   -0.9074580   -0.8946245   -0.8825189   -0.8822623
:EIG00156:      -0.8817249   -0.4223046   -0.4203995   -0.4199387   -0.4193578
:EIG00161:      -0.4177236   -0.4173199   -0.4170935   -0.4155721   -0.4155303
:EIG00166:      -0.4153200   -0.4148911   -0.4140704   -0.4131601   -0.3775788
:EIG00171:      -0.3373799   -0.2769362   -0.1548686   -0.1540866   -0.1511361
:EIG00176:      -0.1469286   -0.1450793   -0.1363463   -0.1035755   -0.0859568
:EIG00181:      -0.0828972   -0.0814269   -0.0800652   -0.0729260   -0.0641036
:EIG00186:      -0.0582905   -0.0560732   -0.0534683   -0.0508046   -0.0484156
:EIG00191:      -0.0471090   -0.0450931   -0.0446253   -0.0433607   -0.0367872
:EIG00196:      -0.0324586   -0.0320698   -0.0316908   -0.0294707   -0.0280280
 
:EIG00201:      -0.0267944   -0.0242821   -0.0227667   -0.0224334   -0.0049998
:EIG00206:       0.0489293    0.0970630    0.1502051    0.3293742    0.3330344
:EIG00211:       0.3369984    0.3617388    0.3749461    0.3927299    0.3973061
:EIG00216:       0.4766317    0.4824230    0.4893913    0.4944384    0.5222534
:EIG00221:       0.5247281    0.5293122    0.5368331    0.5411114    0.5417489
:EIG00226:       0.5452349    0.5506989    0.5520280    0.5662122    0.5703511
:EIG00231:       0.5714161    0.5786089    0.5917370    0.5952228    0.5992235
:EIG00236:       0.6051980    0.6065192    0.6116762    0.6141523    0.6237723
:EIG00241:       0.6293435    0.6336301    0.6422370    0.6504314    0.6525805
:EIG00246:       0.6692660    0.6756689    0.6845442    0.6916107    0.6962913
 
:EIG00251:       0.7094265    0.7260626    0.7363352    0.7437515    0.7510465
:EIG00256:       0.7537099    0.7561752    0.7614947    0.7709107    0.7806850
:EIG00261:       0.7818673    0.7863389    0.7892044    0.8268462    0.8459161
:EIG00266:       0.8513561    0.8540006    0.8589836    0.8601291    0.8630781
:EIG00271:       0.8666645    0.8766564    0.8906642    0.8927405    0.9037512
:EIG00276:       0.9193309    0.9315265    0.9389018    0.9468190    0.9514177
:EIG00281:       0.9533384    0.9627739    0.9740728    0.9788312    0.9901430
:EIG00286:       0.9919668    1.0028115    1.0075473    1.0088998    1.0124313
:EIG00291:       1.0199485    1.0217486    1.0356702    1.0518147    1.0597994
:EIG00296:       1.0670673    1.0739444    1.0807775    1.0828564    1.0862682
 
:EIG00301:       1.0896152    1.0954339    1.0979941    1.1006571    1.1047705
:EIG00306:       1.1091371    1.1138946    1.1209018    1.1218990    1.1284800
:EIG00311:       1.1311449    1.1367809    1.1430398    1.1465036    1.1508447
:EIG00316:       1.1571838    1.1605191    1.1652233    1.1670738    1.1681514
:EIG00321:       1.1746428    1.1785838    1.1801166    1.1837553    1.1891074
:EIG00326:       1.1900910    1.1959539    1.2001409    1.2119348    1.2171650
:EIG00331:       1.2204385    1.2237717    1.2273156    1.2318934    1.2368252
:EIG00336:       1.2375885    1.2458903    1.2470910    1.2539978    1.2568264
:EIG00341:       1.2653284    1.2710985    1.2779789    1.2805336    1.2843954
:EIG00346:       1.2925554    1.3049448    1.3102412    1.3123063    1.3151437
 
:EIG00351:       1.3193273    1.3317599    1.3368356    1.3401124    1.3527445
:EIG00356:       1.3618056    1.3671030    1.3692801    1.3766097    1.3839353
:EIG00361:       1.3860879    1.3890257    1.4011009    1.4082829    1.4086850
:EIG00366:       1.4204709    1.4257156    1.4283509    1.4320514    1.4364915
:EIG00371:       1.4421310    1.4424009    1.4487203    1.4550221    1.4637168
:EIG00376:       1.4651655    1.4699115    1.4720691    1.4788844    1.4820369
:EIG00381:       1.4864973    1.4923248    1.5001776    1.5006363    1.5030656
:EIG00386:       1.5116379    1.5164120    1.5183351    1.5228498    1.5251509
:EIG00391:       1.5281538    1.5351757    1.5436944    1.5453810    1.5487007
:EIG00396:       1.5588352    1.5630771    1.5721800    1.5784542    1.5824658
 
:EIG00401:       1.5847769    1.5943489    1.6086381    1.6113486    1.6230478
:EIG00406:       1.6262395    1.6348535    1.6380571    1.6424227    1.6521932
:EIG00411:       1.6549125    1.6590075    1.6623424    1.6711486    1.6742753
:EIG00416:       1.6771109    1.6794434    1.6835571    1.6901012    1.7061049
:EIG00421:       1.7079729    1.7098359    1.7200380    1.7213192    1.7216880
:EIG00426:       1.7291892    1.7334537    1.7350188    1.7437244    1.7457820
:EIG00431:       1.7501878    1.7540835    1.7615699    1.7657016    1.7680912
:EIG00436:       1.7752648    1.7869247    1.7887158    1.7918735    1.7938044
       ********************************************************

:KPT   :      NUMBER OF K-POINTS:   144
       Insulator, EF-inconsistency corrected
:GAP (global)   :  0.179169 Ry =     2.438 eV (accurate value if proper k-mesh)
         Bandranges (emin - emax) and occupancy:
:BAN00198: 198   -0.040969   -0.029637  2.00000000
:BAN00199: 199   -0.038059   -0.029338  2.00000000
:BAN00200: 200   -0.038059   -0.028028  2.00000000
:BAN00201: 201   -0.033995   -0.025981  2.00000000
:BAN00202: 202   -0.033053   -0.023848  2.00000000
:BAN00203: 203   -0.027908   -0.018264  2.00000000
:BAN00204: 204   -0.027908   -0.018264  2.00000000
:BAN00205: 205   -0.005000    0.059685  2.00000000
:BAN00206: 206    0.004652    0.061452  2.00000000
:BAN00207: 207    0.033159    0.112453  2.00000000
:BAN00208: 208    0.033159    0.150205  2.00000000
:BAN00209: 209    0.329374    0.432543  0.00000000
:BAN00210: 210    0.333034    0.432543  0.00000000
:BAN00211: 211    0.336998    0.438684  0.00000000
:BAN00212: 212    0.354785    0.438684  0.00000000
:BAN00213: 213    0.371173    0.456168  0.00000000
        Energy to separate low and high energystates:   -0.47230


:NOE  : NUMBER OF ELECTRONS          =  416.000

:FER  : F E R M I - ENERGY(TETRAH.M.)=   0.1502050802
:GMA  : POTENTIAL AND CHARGE CUT-OFF  12.00 Ry**.5

:POS001: ATOM   -1 X,Y,Z = 0.50000 0.50000 0.50000  MULT= 4  ZZ= 82.000  Pb        

       LMMAX 28
       LM=   0 0  2 0  2 1 -2 1  2 2 -2 2  4 0  4 1 -4 1  4 2 -4 2  4 3 -4 3  4 4 -4 4  6 0  6 1
        -6 1  6 2 -6 2  6 3 -6 3  6 4 -6 4  6 5 -6 5  6 6 -6 6

:CHA001: TOTAL VALENCE CHARGE INSIDE SPHERE   1 =  31.3160    (RMT=  2.5000 )
:PCS001: PARTIAL CHARGES SPHERE =  1 S,P,D,F,PX,PY,PZ,D-Z2,D-X2Y2,D-XY,D-XZ,D-YZ 
:QTL001: 1.3321 6.2644 9.704514.0126 2.0873 2.0880 2.0892 1.9487 1.9369 1.9474 1.9361 1.9354
        Q-s-low E-s-low   Q-p-low E-p-low   Q-d-low E-d-low   Q-f-low E-f-low
:EPL001:  0.0183 -0.9589    6.0039 -5.6363    9.6295 -0.9143   14.0010 -9.0860
        Q-s-hi  E-s-hi    Q-p-hi  E-p-hi    Q-d-hi  E-d-hi    Q-f-hi  E-f-hi 
:EPH001:  1.3138 -0.2310    0.2605 -0.0972    0.0750 -0.0619    0.0116 -0.0636

                      QXX         QXY         QYY         QZZ       UP TO R
:VZZ001:             0.60407     0.64650     0.13157    -0.73565       2.500

:POS002: ATOM   -2 X,Y,Z = 0.48491 0.94655 0.25000  MULT= 4  ZZ= 55.000  Cs        

       LMMAX 28
       LM=   0 0  1 1 -1 1  2 0  2 2 -2 2  3 1 -3 1  3 3 -3 3  4 0  4 2 -4 2  4 4 -4 4  5 1 -5 1
         5 3 -5 3  5 5 -5 5  6 0  6 2 -6 2  6 4 -6 4  6 6 -6 6

:CHA002: TOTAL VALENCE CHARGE INSIDE SPHERE   2 =  16.2966    (RMT=  2.5000 )
:PCS002: PARTIAL CHARGES SPHERE =  2 S,P,D,F,PX,PY,PZ,D-Z2,D-X2Y2,D-XY,D-XZ,D-YZ 
:QTL002: 1.7961 4.489010.0095 0.0018 1.4956 1.4965 1.4969 2.0014 2.0023 2.0011 2.0020 2.0027
        Q-s-low E-s-low   Q-p-low E-p-low   Q-d-low E-d-low   Q-f-low E-f-low
:EPL002:  1.7866 -1.3798    0.0022 -0.9498    9.9946 -4.8627    0.0001 -1.0508
        Q-s-hi  E-s-hi    Q-p-hi  E-p-hi    Q-d-hi  E-d-hi    Q-f-hi  E-f-hi 
:EPH002:  0.0095 -0.0818    4.4868 -0.4045    0.0149 -0.0566    0.0017 -0.0496

                      QXX         QXY         QYY         QZZ       UP TO R
:VZZ002:             0.55920     1.61983    -0.11742    -0.44178       2.500

:POS003: ATOM   -3 X,Y,Z = 0.56000 0.50750 0.25000  MULT= 4  ZZ= 35.000  Br        

       LMMAX 28
       LM=   0 0  1 1 -1 1  2 0  2 2 -2 2  3 1 -3 1  3 3 -3 3  4 0  4 2 -4 2  4 4 -4 4  5 1 -5 1
         5 3 -5 3  5 5 -5 5  6 0  6 2 -6 2  6 4 -6 4  6 6 -6 6

:CHA003: TOTAL VALENCE CHARGE INSIDE SPHERE   3 =  15.9441    (RMT=  2.5000 )
:PCS003: PARTIAL CHARGES SPHERE =  3 S,P,D,F,PX,PY,PZ,D-Z2,D-X2Y2,D-XY,D-XZ,D-YZ 
:QTL003: 1.7964 4.130610.0140 0.0024 1.3961 1.4001 1.3344 2.0109 2.0004 2.0002 2.0017 2.0010
        Q-s-low E-s-low   Q-p-low E-p-low   Q-d-low E-d-low   Q-f-low E-f-low
:EPL003:  1.7651 -0.9521    0.0061 -0.9194   10.0001 -4.3431    0.0006 -0.9416
        Q-s-hi  E-s-hi    Q-p-hi  E-p-hi    Q-d-hi  E-d-hi    Q-f-hi  E-f-hi 
:EPH003:  0.0314 -0.2501    4.1245 -0.0640    0.0140 -0.1197    0.0018 -0.1689

                      QXX         QXY         QYY         QZZ       UP TO R
:VZZ003:            -5.38530    -0.35121    -6.62544    12.01074       2.500

:POS004: ATOM   -4 X,Y,Z = 0.19962 0.70227 0.46752  MULT= 8  ZZ= 35.000  Br        

       LMMAX 49

:CHA004: TOTAL VALENCE CHARGE INSIDE SPHERE   4 =  15.9447    (RMT=  2.5000 )
:PCS004: PARTIAL CHARGES SPHERE =  4 S,P,D,F,PX,PY,PZ,D-Z2,D-X2Y2,D-XY,D-XZ,D-YZ 
:QTL004: 1.7962 4.132010.0136 0.0024 1.3690 1.3658 1.3972 2.0027 2.0019 2.0073 2.0008 2.0009
        Q-s-low E-s-low   Q-p-low E-p-low   Q-d-low E-d-low   Q-f-low E-f-low
:EPL004:  1.7655 -0.9519    0.0059 -0.9184   10.0000 -4.3431    0.0006 -0.9443
        Q-s-hi  E-s-hi    Q-p-hi  E-p-hi    Q-d-hi  E-d-hi    Q-f-hi  E-f-hi 
:EPH004:  0.0306 -0.2505    4.1261 -0.0639    0.0136 -0.1221    0.0018 -0.1635

                      QXX         QXY         QYY         QZZ       UP TO R
:VZZ004:             2.28008    -8.57661     3.25696    -5.53704       2.500

:CHA  : TOTAL VALENCE CHARGE INSIDE UNIT CELL =     416.000000

:SUM  : SUM OF EIGENVALUES =       -1447.316826337


        1.ATOM      Pb                   15 CORE STATES
:1S 001: 1S               -6465.882321026 Ry
:2S 001: 2S               -1154.927340155 Ry
:2PP001: 2P*              -1108.918122168 Ry
:2P 001: 2P                -947.959246526 Ry
:3S 001: 3S                -276.715744817 Ry
:3PP001: 3P*               -255.990525303 Ry
:3P 001: 3P                -220.076584013 Ry
:3DD001: 3D*               -186.085105034 Ry
:3D 001: 3D                -178.444749504 Ry
:4S 001: 4S                 -62.149294803 Ry
:4PP001: 4P*                -53.184481514 Ry
:4P 001: 4P                 -44.393663541 Ry
:4DD001: 4D*                -29.812832243 Ry
:4D 001: 4D                 -28.172597482 Ry
:5S 001: 5S                  -9.922822357 Ry

        2.ATOM      Cs                   12 CORE STATES
       CORE-FORCE in mRy/a.u. = |F|      Fx             Fy             Fz
:FCO002:   2.ATOM      8.597845982400     -8.545630278678     -0.946128256217      0.000000000000

:1S 002: 1S               -2628.599593965 Ry
:2S 002: 2S                -411.672690396 Ry
:2PP002: 2P*               -387.235508873 Ry
:2P 002: 2P                -361.343727997 Ry
:3S 002: 3S                 -85.122431338 Ry
:3PP002: 3P*                -74.919032079 Ry
:3P 002: 3P                 -69.957158927 Ry
:3DD002: 3D*                -52.037899391 Ry
:3D 002: 3D                 -50.984567708 Ry
:4S 002: 4S                 -15.587959506 Ry
:4PP002: 4P*                -11.927105131 Ry
:4P 002: 4P                 -10.915158506 Ry

        3.ATOM      Br                    7 CORE STATES
       CORE-FORCE in mRy/a.u. = |F|      Fx             Fy             Fz
:FCO003:   3.ATOM    106.265619011778     40.473464498266     98.256198051135      0.000000000000

:1S 003: 1S                -977.961383704 Ry
:2S 003: 2S                -126.758750199 Ry
:2PP003: 2P*               -114.088793434 Ry
:2P 003: 2P                -110.597412061 Ry
:3S 003: 3S                 -16.932910404 Ry
:3PP003: 3P*                -12.528371907 Ry
:3P 003: 3P                 -12.026172456 Ry

        4.ATOM      Br                    7 CORE STATES
       CORE-FORCE in mRy/a.u. = |F|      Fx             Fy             Fz
:FCO004:   4.ATOM     77.872232959129    -22.111297900402    -47.837270631481    -57.330364639787

:1S 004: 1S                -977.961444409 Ry
:2S 004: 2S                -126.758812365 Ry
:2PP004: 2P*               -114.088855382 Ry
:2P 004: 2P                -110.597474040 Ry
:3S 004: 3S                 -16.932973335 Ry
:3PP004: 3P*                -12.528434733 Ry
:3P 004: 3P                 -12.026235249 Ry
:CINT001 Core Integral Atom   1   47.999887
:CINT002 Core Integral Atom   2   35.999909
:CINT003 Core Integral Atom   3   17.999989
:CINT004 Core Integral Atom   4   17.999989

       DENSITY AT NUCLEUS
        JATOM        VALENCE       SEMI-CORE          CORE           TOTAL
:RTO001:   1     1948.054670        0.000000  9910101.733251  9912049.787922
:RTO002:   2      320.954606        0.000000   438170.993760   438491.948366
:RTO003:   3       73.571699        0.000000    45839.118221    45912.689920
:RTO004:   4       73.557468        0.000000    45839.118208    45912.675676
     
       CHARGES OF NEW CHARGE DENSITY
:NTO   : INTERSTITIAL CHARGE =    34.215362
:NPC   : PW Pseudocharge     =   103.683743
:NTO001: CHARGE SPHERE  1    =    79.315897
:NTO002: CHARGE SPHERE  2    =    52.296490
:NTO003: CHARGE SPHERE  3    =    33.944059
:NTO004: CHARGE SPHERE  4    =    33.944734

:NEC01: NUCLEAR AND ELECTRONIC CHARGE    968.00000   967.99902
     
       CHARGES OF OLD CHARGE DENSITY
:OTO   : INTERSTITIAL CHARGE =    36.554749
:OPC   : PW Pseudocharge     =   113.716627
:OTO001: CHARGE SPHERE  1    =    79.796963
:OTO002: CHARGE SPHERE  2    =    52.317398
:OTO003: CHARGE SPHERE  3    =    33.582715
:OTO004: CHARGE SPHERE  4    =    33.582123

:NEC02: NUCLEAR AND ELECTRONIC CHARGE    968.00000   968.00004
     
       CONVERGENCE TEST
:DTO001: DIFFERENCE IN SPHERE  1 =  0.5852133
:DTO002: DIFFERENCE IN SPHERE  2 =  0.0705913
:DTO003: DIFFERENCE IN SPHERE  3 =  0.1824021
:DTO004: DIFFERENCE IN SPHERE  4 =  0.1830899

:DIS  :  CHARGE DISTANCE       ( 0.5852133 for atom    1 spin 1)      0.2408773
 PW Mixed is         2247
 
******************************************************
* MULTISECANT MIXING VER9 RELEASE 10.4.0              *
* Slow Mode, cautious                                *
* Fixed density scale                                *
* Regularization       1.000E-04                     *
* Step Trust Radius    0.75000                       *
* Trust Upper Limit    2.000E+00                     *
* Max Number of Memory Steps   12                    *
******************************************************
 
:PWTMP   3.9481E+03  2.5000E+03  5.2571E+03
:PLANE:  PW TOTAL      8.9395 DISTAN   1.01E+00  1.13E+01 %
:CHARG:  CLM/ATOM   1115.9632 DISTAN   3.36E-01  3.01E-02 %
 
Step History
        DMIX         DMIXT        Red     Pred      Trust     Lambda    MagRel    MagAbs     Beta
  1   3.5000E-02   3.5000E-02 -1.00E+00  1.00E+00 -1.00E+01  1.00E+00  3.50E-02  3.50E-02  1.00E+00
  2   2.5000E-02   2.5000E-02 -1.00E+00  1.00E+00 -1.00E+01  1.00E+00  2.50E-02  9.29E-02  1.00E+00
:JACOBIANS    4.976E-01   1.544E-04
  
:TRUST:  Step 4.30E-02  Charge 7.50E-02 (e) CTO  4.43E-01 (e) PW  6.21E-01 (e)
:DIRM :  MEMORY  1/12 SCALE   1.000
:MIX  :   PRATT  REGULARIZATION:  1.00E-04 GREED: 0.04298  Expand 1.72  0.0430                
     
       CHARGES OF MIXED CHARGE DENSITY
:CTO   : INTERSTITIAL CHARGE =    36.537966
:CPC   : PW Pseudocharge     =   108.974381
:CTO001: CHARGE SPHERE  1    =    79.793567
:CTO002: CHARGE SPHERE  2    =    52.317240
:CTO003: CHARGE SPHERE  3    =    33.585289
:CTO004: CHARGE SPHERE  4    =    33.584706

:NEC03: NUCLEAR AND ELECTRONIC CHARGE    968.00000   968.00000

PW CHANGE     H    K    L      Current       Change    Residue
:PTO001:      0    0    0  2.76793464E-02 -9.052E-04 -2.353E-03
:PTO006:     -1    0   -1 -2.44269287E-03  7.264E-05  1.245E-04
:PTO007:      0    0   -2  3.12466150E-03 -4.953E-04 -1.348E-03
:PTO008:     -1   -1    0  5.87524725E-03 -1.025E-03 -2.651E-03
:PTO009:     -1   -1   -1 -1.05689429E-02  4.178E-04  6.359E-04
:PTO012:      0   -2    0  7.28014506E-03 -7.993E-04 -1.623E-03
:PTO013:     -1   -1   -2  2.30881055E-02 -3.025E-03 -6.651E-03
:PTO014:     -2    0    0  7.21599637E-03 -8.137E-04 -1.632E-03
:PTO015:      0   -2   -1  5.80770627E-03 -3.003E-04 -6.262E-04
:PTO018:     -1   -2    0 -1.06525687E-02  3.379E-04  3.146E-04
:PTO019:     -2   -1    0  1.17108237E-02 -3.800E-04 -3.616E-04
:PTO021:     -1   -2   -1  1.22121464E-02 -4.033E-04 -3.897E-04

:ENE  : ********** TOTAL ENERGY IN Ry =      -292309.88091876

       TOTAL FORCE IN mRy/a.u. = |F|     Fx             Fy             Fz     with/without FOR in case.in2
:FOR001:   1.ATOM          0.000          0.000          0.000          0.000 partial forces
:FOR002:   2.ATOM          4.216          4.202          0.343          0.000 partial forces
:FOR003:   3.ATOM         99.487        -40.659        -90.799          0.000 partial forces
:FOR004:   4.ATOM         75.937         23.152         46.640         55.273 partial forces
       TOTAL FORCE WITH RESPECT TO GLOBAL CARTESIAN COORDINATES:
:FCA001:   1.ATOM                         0.000          0.000          0.000 partial forces
:FCA002:   2.ATOM                         4.202          0.343          0.000 partial forces
:FCA003:   3.ATOM                       -40.659        -90.799          0.000 partial forces
:FCA004:   4.ATOM                        23.152         46.640         55.273 partial forces
       TOTAL FORCE WITH RESPECT TO THE GLOBAL COORDINATE SYSTEM:
:FGL001:   1.ATOM                 0.000000000     0.000000000     0.000000000 partial forces
:FGL002:   2.ATOM                 4.201705162     0.343459860     0.000000000 partial forces
:FGL003:   3.ATOM               -40.658735758   -90.798872267     0.000000000 partial forces
:FGL004:   4.ATOM                23.152384985    46.639906078    55.273028663 partial forces
 Flat Integration
 New Mode for Coulomb Integral
 Consistent 3/8+Simpson combinations
 Extension of core to zero
 LDM version in phi
 Fifth-order quadrature in outwin


            ---------
:ITE003:  3. ITERATION
            ---------

:NATO :    4 INDEPENDENT AND   20 TOTAL ATOMS IN UNITCELL
       SUBSTANCE: blebleble                                                   

       LATTICE                      = P   
:POT  : POTENTIAL OPTION EX_PBE EC_PBE VX_PBE VC_PBE
:LAT  : LATTICE CONSTANTS= 15.19415 15.66734 22.08372    1.571    1.571    1.571
:VOL  : UNIT CELL VOLUME =    5257.07306
       MODE OF CALCULATION IS       = RELA
       NON-SPINPOLARIZED CALCULATION
:IFFT  : FFT-parameters:  120  120  180 Factor: 2.00


   CONVERGENCE PARAMETER FOR PSEUDOCHARGE: NCON=  9
   MAXIMAL VALUE OF RMT(JATOM)*ABSK(NKK) : RK  =29.99804


:VKCOUL :  VK-COUL convergence: 0.225E-08
       ATOMNUMBER=  1 Pb         VCOUL-ZERO =  0.92518E-01
:EFG001:                        EFG         =     0.03470   *10**21  V / m**2
                               V20  TOT/SRF=    -0.01949     0.00188
                               V22  TOT/SRF=     0.00697    -0.00071
                               V22M TOT/SRF=     0.01977    -0.00082
                               V21  TOT/SRF=    -0.00577     0.00315
                               V21M TOT/SRF=    -0.01231    -0.00510

              0.01822    0.01977   -0.00577        0.03470    0.00000    0.00000
              0.01977    0.00428   -0.01231        0.00000   -0.00731    0.00000
             -0.00577   -0.01231   -0.02250        0.00000    0.00000   -0.02739

         MAIN DIRECTIONS OF THE EFG   1.0000 -0.8820 -0.0574
                                      0.7567  1.0000  0.4244
                                     -0.2638 -0.4750  1.0000
:ANG001:  ANGLE WITH OLD X-AXIS =        41.5

:ETA001:                         ASYMM. ETA =     0.57893


       ATOMNUMBER=  2 Cs         VCOUL-ZERO = -0.59524E-01
:EFG002:                        EFG         =     0.05859   *10**21  V / m**2
                               V20  TOT/SRF=    -0.01228    -0.00045
                               V22  TOT/SRF=     0.01034    -0.00050
                               V22M TOT/SRF=     0.05046    -0.00101
                               V21  TOT/SRF=     0.00000     0.00000
                               V21M TOT/SRF=     0.00000     0.00000

              0.01743    0.05046    0.00000        0.05859    0.00000    0.00000
              0.05046   -0.00325    0.00000        0.00000   -0.04441    0.00000
              0.00000    0.00000   -0.01418        0.00000    0.00000   -0.01418

         MAIN DIRECTIONS OF THE EFG   1.0000 -0.8159  0.0000
                                      0.8159  1.0000  0.0000
                                      0.0000  0.0000  1.0000
:ANG002:  ANGLE WITH OLD X-AXIS =        39.2

:ETA002:                         ASYMM. ETA =     0.51598


       ATOMNUMBER=  3 Br         VCOUL-ZERO =  0.27268E+00
:EFG003:                        EFG         =     0.39362   *10**21  V / m**2
                               V20  TOT/SRF=     0.34088     0.06382
                               V22  TOT/SRF=     0.02358     0.00572
                               V22M TOT/SRF=    -0.02190    -0.01135
                               V21  TOT/SRF=     0.00000     0.00000
                               V21M TOT/SRF=     0.00000     0.00000

             -0.17323   -0.02190    0.00000       -0.16463    0.00000    0.00000
             -0.02190   -0.22039    0.00000        0.00000   -0.22899    0.00000
              0.00000    0.00000    0.39362        0.00000    0.00000    0.39362

         MAIN DIRECTIONS OF THE EFG   1.0000  0.3928  0.0000
                                     -0.3928  1.0000  0.0000
                                      0.0000  0.0000  1.0000
:ANG003:  ANGLE WITH OLD X-AXIS =        21.4

:ETA003:                         ASYMM. ETA =     0.16351


       ATOMNUMBER=  4 Br         VCOUL-ZERO =  0.27274E+00
:EFG004:                        EFG         =     0.37226   *10**21  V / m**2
                               V20  TOT/SRF=    -0.15414    -0.02760
                               V22  TOT/SRF=    -0.01842    -0.00450
                               V22M TOT/SRF=    -0.28137    -0.05252
                               V21  TOT/SRF=    -0.03157    -0.00408
                               V21M TOT/SRF=     0.00694     0.00787

              0.07058   -0.28137   -0.03157        0.37226    0.00000    0.00000
             -0.28137    0.10742    0.00694        0.00000   -0.20565    0.00000
             -0.03157    0.00694   -0.17799        0.00000    0.00000   -0.16661

         MAIN DIRECTIONS OF THE EFG  -0.9396  1.0000 -0.4726
                                      1.0000  0.8784 -0.5106
                                      0.0665  0.9211  1.0000
:ANG004:  ANGLE WITH OLD X-AXIS =       130.3

:ETA004:                         ASYMM. ETA =     0.10485


     HELLMANN-FEYNMAN-FORCE IN mRy/a.u. = |F|  Fx       Fy             Fz
:FHF001:   1.ATOM      0.000000000000      0.000000000000      0.000000000000      0.000000000000

     HELLMANN-FEYNMAN-FORCE IN mRy/a.u. = |F|  Fx       Fy             Fz
:FHF002:   2.ATOM     12.666126330239     12.539456744068      1.786835408541      0.000000000000

     HELLMANN-FEYNMAN-FORCE IN mRy/a.u. = |F|  Fx       Fy             Fz
:FHF003:   3.ATOM    202.104081515116    -77.998900013560   -186.446323004085      0.000000000000

     HELLMANN-FEYNMAN-FORCE IN mRy/a.u. = |F|  Fx       Fy             Fz
:FHF004:   4.ATOM    148.182914274919     42.474722936652     90.923779466765    109.027245778025

:FIT001: LUSE= 13 SIGMA OF V-XC FIT FOR ATOM  1  0.7724617E-03
:FIT001: LUSE= 13 SIGMA OF V-XC FIT FOR ATOM  1  0.7724617E-03
:FIT002: LUSE= 13 SIGMA OF V-XC FIT FOR ATOM  2  0.1723525E-04
:FIT002: LUSE= 13 SIGMA OF V-XC FIT FOR ATOM  2  0.1723525E-04
:FIT003: LUSE= 13 SIGMA OF V-XC FIT FOR ATOM  3  0.7128904E-03
:FIT003: LUSE= 13 SIGMA OF V-XC FIT FOR ATOM  3  0.7128904E-03
:FIT004: LUSE= 13 SIGMA OF V-XC FIT FOR ATOM  4  0.6337570E-03
:FIT004: LUSE= 13 SIGMA OF V-XC FIT FOR ATOM  4  0.6337570E-03
:DEN  : DENSITY INTEGRAL  =       -114049.84603731   (Ry)
       ELS_POTENTIAL_AT Z=0 and Z=0.5:  -0.53747  -0.53747
       ELS_POTENTIAL_AT Y=0 and Y=0.5:  -0.44924  -0.44924
:VZERO:v0,v0c,v0x  -1.25022  -0.53747  -0.71275 v5,v5c,v5x  -1.25022  -0.53747  -0.71275
:VZERY:v0,v0c,v0x  -1.08160  -0.44924  -0.63236 v5,v5c,v5x  -1.08160  -0.44924  -0.63236
:VZERX:v0,v0c,v0x  -1.07403  -0.44816  -0.62587 v5,v5c,v5x  -1.07403  -0.44816  -0.62587
:LMAX-WF:   10   Non-Spherical LMAX:   4

          ATOMIC SPHERE DEPENDENT PARAMETERS FOR ATOM  Pb        
:e__0001: OVERALL ENERGY PARAMETER IS    0.0001
          OVERALL BASIS SET ON ATOM IS LAPW
:E1_0001: E( 1)=    0.0001
             APW+lo
:E1_0001: E( 1)=   -5.6519   E(BOTTOM)=   -5.672   E(TOP)=   -5.632  3  3   122
             LOCAL ORBITAL
:E3_0001: E( 3)=    0.0001
             APW+lo
:E3_0001: E( 3)=   -9.0920   E(BOTTOM)=   -9.092   E(TOP)=   -9.092  1  1   108
             LOCAL ORBITAL
:E2_0001: E( 2)=    0.4001
             APW+lo
:E2_0001: E( 2)=   -0.9576   E(BOTTOM)=   -1.195   E(TOP)=   -0.720  2  3   117
             LOCAL ORBITAL
:E0_0001: E( 0)=    0.0001
             APW+lo

          ATOMIC SPHERE DEPENDENT PARAMETERS FOR ATOM  Cs        
:e__0002: OVERALL ENERGY PARAMETER IS    0.0001
          OVERALL BASIS SET ON ATOM IS LAPW
:E2_0002: E( 2)=    0.0001
             APW+lo
:E2_0002: E( 2)=   -4.8678   E(BOTTOM)=   -4.879   E(TOP)=   -4.856  1  2   118
             LOCAL ORBITAL
:E0_0002: E( 0)=    0.4001
             APW+lo
:E0_0002: E( 0)=   -1.3764   E(BOTTOM)=   -2.059   E(TOP)=   -0.694  4  5   166
             LOCAL ORBITAL
:E1_0002: E( 1)=    0.4001
             APW+lo
:E1_0002: E( 1)=   -0.2035   E(BOTTOM)=   -1.176   E(TOP)=    0.769  3  4   196
             LOCAL ORBITAL

          ATOMIC SPHERE DEPENDENT PARAMETERS FOR ATOM  Br        
:e__0003: OVERALL ENERGY PARAMETER IS    0.0001
          OVERALL BASIS SET ON ATOM IS LAPW
:E2_0003: E( 2)=    0.0001
             APW+lo
:E2_0003: E( 2)=   -4.3449   E(BOTTOM)=   -4.348   E(TOP)=   -4.342  1  1   121
             LOCAL ORBITAL
:E0_0003: E( 0)=    0.4001
             APW+lo
:E0_0003: E( 0)=   -0.9520   E(BOTTOM)=   -1.518   E(TOP)=   -0.386  3  4   154
             LOCAL ORBITAL
:E1_0003: E( 1)=    0.0001
             APW+lo

          ATOMIC SPHERE DEPENDENT PARAMETERS FOR ATOM  Br        
:e__0004: OVERALL ENERGY PARAMETER IS    0.0001
          OVERALL BASIS SET ON ATOM IS LAPW
:E2_0004: E( 2)=    0.0001
             APW+lo
:E2_0004: E( 2)=   -4.3449   E(BOTTOM)=   -4.348   E(TOP)=   -4.342  1  1   116
             LOCAL ORBITAL
:E0_0004: E( 0)=    0.4001
             APW+lo
:E0_0004: E( 0)=   -0.9520   E(BOTTOM)=   -1.518   E(TOP)=   -0.386  3  4   154
             LOCAL ORBITAL
:E1_0004: E( 1)=    0.0001
             APW+lo

       K=   0.04545   0.04545   0.07143            1
:RKM  : MATRIX SIZE  2307LOs: 376  RKM= 7.00  WEIGHT= 8.00  PGR:    
       EIGENVALUES ARE:
:EIG00001:      -9.0919981   -9.0919978   -9.0919976   -9.0919975   -9.0919960
:EIG00006:      -9.0919959   -9.0919955   -9.0919953   -9.0919746   -9.0919741
:EIG00011:      -9.0919739   -9.0919737   -9.0919592   -9.0919591   -9.0919590
:EIG00016:      -9.0919588   -9.0919472   -9.0919468   -9.0919466   -9.0919463
:EIG00021:      -9.0919031   -9.0919029   -9.0919027   -9.0919025   -9.0919018
:EIG00026:      -9.0919017   -9.0919016   -9.0919014   -5.6481855   -5.6481829
:EIG00031:      -5.6481773   -5.6481744   -5.6478801   -5.6478706   -5.6478670
:EIG00036:      -5.6478653   -5.6476939   -5.6476927   -5.6476850   -5.6476775
:EIG00041:      -4.8650316   -4.8650269   -4.8650129   -4.8650106   -4.8650087
:EIG00046:      -4.8650042   -4.8650005   -4.8649918   -4.8649901   -4.8649858
 
:EIG00051:      -4.8649829   -4.8649815   -4.8649739   -4.8649602   -4.8649522
:EIG00056:      -4.8649430   -4.8649389   -4.8649248   -4.8649203   -4.8649043
:EIG00061:      -4.3447501   -4.3447455   -4.3447390   -4.3447329   -4.3447239
:EIG00066:      -4.3447178   -4.3447145   -4.3447088   -4.3447050   -4.3447046
:EIG00071:      -4.3447003   -4.3446930   -4.3444524   -4.3444396   -4.3444375
:EIG00076:      -4.3444357   -4.3443866   -4.3443791   -4.3443770   -4.3443721
:EIG00081:      -4.3443711   -4.3443690   -4.3443629   -4.3443507   -4.3443269
:EIG00086:      -4.3443210   -4.3443096   -4.3443031   -4.3442961   -4.3442940
:EIG00091:      -4.3442866   -4.3442831   -4.3441599   -4.3441543   -4.3441508
:EIG00096:      -4.3441449   -4.3437179   -4.3437176   -4.3437090   -4.3437089
 
:EIG00101:      -4.3437019   -4.3436987   -4.3436952   -4.3436897   -4.3436796
:EIG00106:      -4.3436691   -4.3436630   -4.3436610   -4.3436577   -4.3436567
:EIG00111:      -4.3436555   -4.3436477   -4.3436466   -4.3436460   -4.3436447
:EIG00116:      -4.3436409   -4.3435904   -4.3435895   -4.3435849   -4.3435784
:EIG00121:      -1.3825014   -1.3823400   -1.3821580   -1.3820553   -0.9781892
:EIG00126:      -0.9779345   -0.9778379   -0.9766242   -0.9750850   -0.9718238
:EIG00131:      -0.9538533   -0.9536422   -0.9535210   -0.9531504   -0.9526559
:EIG00136:      -0.9522069   -0.9238304   -0.9236060   -0.9230269   -0.9173680
:EIG00141:      -0.9172328   -0.9171691   -0.9170959   -0.9170200   -0.9169612
:EIG00146:      -0.9165789   -0.9165555   -0.9163976   -0.9163540   -0.9162070
 
:EIG00151:      -0.9160533   -0.9112644   -0.8980722   -0.8856918   -0.8854467
:EIG00156:      -0.8849117   -0.4243049   -0.4232712   -0.4219354   -0.4213868
:EIG00161:      -0.4197566   -0.4193261   -0.4191156   -0.4175920   -0.4175554
:EIG00166:      -0.4173197   -0.4169244   -0.4161156   -0.4151626   -0.3805732
:EIG00171:      -0.3404760   -0.2802875   -0.1564911   -0.1557350   -0.1527931
:EIG00176:      -0.1485549   -0.1467022   -0.1380344   -0.1047568   -0.0871641
:EIG00181:      -0.0840885   -0.0826266   -0.0812731   -0.0741285   -0.0653019
:EIG00186:      -0.0594003   -0.0571991   -0.0545803   -0.0519556   -0.0495514
:EIG00191:      -0.0482260   -0.0461918   -0.0457586   -0.0445130   -0.0379496
:EIG00196:      -0.0337549   -0.0334017   -0.0330185   -0.0306045   -0.0291551
 
:EIG00201:      -0.0279153   -0.0253392   -0.0238533   -0.0234846   -0.0061809
:EIG00206:       0.0470808    0.0950731    0.1480749    0.3267294    0.3303712
:EIG00211:       0.3343903    0.3590692    0.3722633    0.3900620    0.3956200
:EIG00216:       0.4749852    0.4808328    0.4876473    0.4927513    0.5201013
:EIG00221:       0.5229231    0.5275176    0.5348092    0.5392201    0.5397731
:EIG00226:       0.5434793    0.5489672    0.5503354    0.5642013    0.5684419
:EIG00231:       0.5697659    0.5769814    0.5897147    0.5930064    0.5973552
:EIG00236:       0.6030243    0.6044855    0.6096750    0.6123705    0.6221189
:EIG00241:       0.6275351    0.6317105    0.6404398    0.6486379    0.6508081
:EIG00246:       0.6675685    0.6739655    0.6829127    0.6897995    0.6946759
 
:EIG00251:       0.7077628    0.7243813    0.7346665    0.7422117    0.7494776
:EIG00256:       0.7520579    0.7546248    0.7599254    0.7693405    0.7791288
:EIG00261:       0.7803575    0.7848262    0.7876494    0.8251874    0.8444073
:EIG00266:       0.8498177    0.8523424    0.8574093    0.8586287    0.8615461
:EIG00271:       0.8650648    0.8751568    0.8890318    0.8911648    0.9023272
:EIG00276:       0.9178382    0.9299798    0.9374262    0.9454262    0.9500190
:EIG00281:       0.9519986    0.9613371    0.9728628    0.9772656    0.9886499
:EIG00286:       0.9904196    1.0012261    1.0062404    1.0077860    1.0113674
:EIG00291:       1.0185386    1.0202914    1.0344191    1.0504838    1.0586308
:EIG00296:       1.0658254    1.0732565    1.0797618    1.0820215    1.0855953
 
:EIG00301:       1.0888162    1.0949519    1.0975969    1.1001516    1.1043080
:EIG00306:       1.1085430    1.1133559    1.1201744    1.1211158    1.1279513
:EIG00311:       1.1304934    1.1361726    1.1426728    1.1462371    1.1499937
:EIG00316:       1.1565712    1.1597729    1.1645069    1.1665962    1.1673272
:EIG00321:       1.1741863    1.1779940    1.1799054    1.1836566    1.1885645
:EIG00326:       1.1893562    1.1954247    1.1997926    1.2123454    1.2169921
:EIG00331:       1.2205474    1.2243628    1.2275781    1.2321527    1.2365117
:EIG00336:       1.2379122    1.2461755    1.2473411    1.2550161    1.2563412
:EIG00341:       1.2651526    1.2708928    1.2781671    1.2807185    1.2842559
:EIG00346:       1.2928743    1.3045219    1.3099627    1.3121914    1.3173485
 
:EIG00351:       1.3192444    1.3350931    1.3369685    1.3415421    1.3522608
:EIG00356:       1.3639253    1.3679133    1.3701136    1.3769762    1.3850708
:EIG00361:       1.3864481    1.3933652    1.4026464    1.4100207    1.4109369
:EIG00366:       1.4236702    1.4263306    1.4325939    1.4346457    1.4388022
:EIG00371:       1.4435200    1.4445799    1.4493600    1.4576174    1.4646188
:EIG00376:       1.4675345    1.4713512    1.4739720    1.4817249    1.4854112
:EIG00381:       1.4882478    1.4955061    1.5023725    1.5028510    1.5065035
:EIG00386:       1.5151330    1.5192023    1.5204986    1.5253873    1.5271769
:EIG00391:       1.5312250    1.5391760    1.5470820    1.5484633    1.5499001
:EIG00396:       1.5584881    1.5659461    1.5725651    1.5795916    1.5840720
 
:EIG00401:       1.5849213    1.5957021    1.6098446    1.6129825    1.6247196
:EIG00406:       1.6287119    1.6360347    1.6406451    1.6439933    1.6536362
:EIG00411:       1.6561986    1.6613764    1.6633938    1.6719751    1.6754340
:EIG00416:       1.6788758    1.6814730    1.6843912    1.6904192
       ********************************************************

:KPT   :      NUMBER OF K-POINTS:   144
       Insulator, EF-inconsistency corrected
:GAP (global)   :  0.178655 Ry =     2.431 eV (accurate value if proper k-mesh)
         Bandranges (emin - emax) and occupancy:
:BAN00198: 198   -0.042078   -0.030750  2.00000000
:BAN00199: 199   -0.039202   -0.030437  2.00000000
:BAN00200: 200   -0.039202   -0.029155  2.00000000
:BAN00201: 201   -0.035161   -0.027084  2.00000000
:BAN00202: 202   -0.034229   -0.024935  2.00000000
:BAN00203: 203   -0.029035   -0.019337  2.00000000
:BAN00204: 204   -0.029035   -0.019337  2.00000000
:BAN00205: 205   -0.006181    0.057751  2.00000000
:BAN00206: 206    0.003180    0.059519  2.00000000
:BAN00207: 207    0.031168    0.110368  2.00000000
:BAN00208: 208    0.031168    0.148075  2.00000000
:BAN00209: 209    0.326729    0.430299  0.00000000
:BAN00210: 210    0.330371    0.430299  0.00000000
:BAN00211: 211    0.334390    0.436369  0.00000000
:BAN00212: 212    0.352156    0.436369  0.00000000
:BAN00213: 213    0.368492    0.453781  0.00000000
        Energy to separate low and high energystates:   -0.47430


:NOE  : NUMBER OF ELECTRONS          =  416.000

:FER  : F E R M I - ENERGY(TETRAH.M.)=   0.1480748708
:GMA  : POTENTIAL AND CHARGE CUT-OFF  12.00 Ry**.5

:POS001: ATOM   -1 X,Y,Z = 0.50000 0.50000 0.50000  MULT= 4  ZZ= 82.000  Pb        

       LMMAX 28
       LM=   0 0  2 0  2 1 -2 1  2 2 -2 2  4 0  4 1 -4 1  4 2 -4 2  4 3 -4 3  4 4 -4 4  6 0  6 1
        -6 1  6 2 -6 2  6 3 -6 3  6 4 -6 4  6 5 -6 5  6 6 -6 6

:CHA001: TOTAL VALENCE CHARGE INSIDE SPHERE   1 =  31.3189    (RMT=  2.5000 )
:PCS001: PARTIAL CHARGES SPHERE =  1 S,P,D,F,PX,PY,PZ,D-Z2,D-X2Y2,D-XY,D-XZ,D-YZ 
:QTL001: 1.3327 6.2662 9.705014.0127 2.0879 2.0885 2.0897 1.9488 1.9370 1.9475 1.9362 1.9355
        Q-s-low E-s-low   Q-p-low E-p-low   Q-d-low E-d-low   Q-f-low E-f-low
:EPL001:  0.0185 -0.9600    6.0040 -5.6410    9.6303 -0.9187   14.0010 -9.0913
        Q-s-hi  E-s-hi    Q-p-hi  E-p-hi    Q-d-hi  E-d-hi    Q-f-hi  E-f-hi 
:EPH001:  1.3142 -0.2346    0.2622 -0.0989    0.0748 -0.0633    0.0116 -0.0649

                      QXX         QXY         QYY         QZZ       UP TO R
:VZZ001:             0.60390     0.65067     0.12765    -0.73156       2.500

:POS002: ATOM   -2 X,Y,Z = 0.48491 0.94655 0.25000  MULT= 4  ZZ= 55.000  Cs        

       LMMAX 28
       LM=   0 0  1 1 -1 1  2 0  2 2 -2 2  3 1 -3 1  3 3 -3 3  4 0  4 2 -4 2  4 4 -4 4  5 1 -5 1
         5 3 -5 3  5 5 -5 5  6 0  6 2 -6 2  6 4 -6 4  6 6 -6 6

:CHA002: TOTAL VALENCE CHARGE INSIDE SPHERE   2 =  16.2972    (RMT=  2.5000 )
:PCS002: PARTIAL CHARGES SPHERE =  2 S,P,D,F,PX,PY,PZ,D-Z2,D-X2Y2,D-XY,D-XZ,D-YZ 
:QTL002: 1.7962 4.489510.0095 0.0018 1.4957 1.4966 1.4971 2.0014 2.0023 2.0011 2.0020 2.0027
        Q-s-low E-s-low   Q-p-low E-p-low   Q-d-low E-d-low   Q-f-low E-f-low
:EPL002:  1.7867 -1.3819    0.0022 -0.9509    9.9946 -4.8649    0.0001 -1.0537
        Q-s-hi  E-s-hi    Q-p-hi  E-p-hi    Q-d-hi  E-d-hi    Q-f-hi  E-f-hi 
:EPH002:  0.0095 -0.0829    4.4873 -0.4065    0.0149 -0.0578    0.0017 -0.0507

                      QXX         QXY         QYY         QZZ       UP TO R
:VZZ002:             0.56120     1.62531    -0.11591    -0.44529       2.500

:POS003: ATOM   -3 X,Y,Z = 0.56000 0.50750 0.25000  MULT= 4  ZZ= 35.000  Br        

       LMMAX 28
       LM=   0 0  1 1 -1 1  2 0  2 2 -2 2  3 1 -3 1  3 3 -3 3  4 0  4 2 -4 2  4 4 -4 4  5 1 -5 1
         5 3 -5 3  5 5 -5 5  6 0  6 2 -6 2  6 4 -6 4  6 6 -6 6

:CHA003: TOTAL VALENCE CHARGE INSIDE SPHERE   3 =  15.9413    (RMT=  2.5000 )
:PCS003: PARTIAL CHARGES SPHERE =  3 S,P,D,F,PX,PY,PZ,D-Z2,D-X2Y2,D-XY,D-XZ,D-YZ 
:QTL003: 1.7963 4.128010.0140 0.0024 1.3955 1.3995 1.3330 2.0109 2.0004 2.0002 2.0017 2.0010
        Q-s-low E-s-low   Q-p-low E-p-low   Q-d-low E-d-low   Q-f-low E-f-low
:EPL003:  1.7648 -0.9531    0.0061 -0.9236   10.0001 -4.3435    0.0006 -0.9459
        Q-s-hi  E-s-hi    Q-p-hi  E-p-hi    Q-d-hi  E-d-hi    Q-f-hi  E-f-hi 
:EPH003:  0.0315 -0.2531    4.1220 -0.0652    0.0140 -0.1222    0.0018 -0.1716

                      QXX         QXY         QYY         QZZ       UP TO R
:VZZ003:            -5.43932    -0.34452    -6.67848    12.11781       2.500

:POS004: ATOM   -4 X,Y,Z = 0.19962 0.70227 0.46752  MULT= 8  ZZ= 35.000  Br        

       LMMAX 49

:CHA004: TOTAL VALENCE CHARGE INSIDE SPHERE   4 =  15.9420    (RMT=  2.5000 )
:PCS004: PARTIAL CHARGES SPHERE =  4 S,P,D,F,PX,PY,PZ,D-Z2,D-X2Y2,D-XY,D-XZ,D-YZ 
:QTL004: 1.7961 4.129410.0136 0.0024 1.3680 1.3648 1.3965 2.0027 2.0019 2.0073 2.0008 2.0009
        Q-s-low E-s-low   Q-p-low E-p-low   Q-d-low E-d-low   Q-f-low E-f-low
:EPL004:  1.7653 -0.9529    0.0059 -0.9226   10.0000 -4.3436    0.0006 -0.9485
[...]
:EIG00166:      -0.4323279   -0.4318147   -0.4308857   -0.4307695   -0.4303312
:EIG00171:      -0.4263164   -0.3794464   -0.1621958   -0.1612181   -0.1584809
:EIG00176:      -0.1541693   -0.1521097   -0.1470366   -0.0759103   -0.0611060
:EIG00181:      -0.0559360   -0.0546162   -0.0534692   -0.0479230   -0.0392032
:EIG00186:      -0.0288747   -0.0272427   -0.0259554   -0.0243141   -0.0220358
:EIG00191:      -0.0211078   -0.0179848   -0.0154717   -0.0138893   -0.0132910
:EIG00196:      -0.0124917   -0.0117992   -0.0051950    0.0004721    0.0019519
 
:EIG00201:       0.0036938    0.0078492    0.0112577    0.0135692    0.0252687
:EIG00206:       0.0414669    0.0791264    0.1245665    0.2691966    0.2715420
:EIG00211:       0.2795038    0.3002729    0.3133274    0.3299024    0.4085355
:EIG00216:       0.4848655    0.4880906    0.4922597    0.4969728    0.5027518
:EIG00221:       0.5036724    0.5074585    0.5208395    0.5275285    0.5353277
:EIG00226:       0.5399397    0.5442645    0.5448198    0.5513485    0.5527990
:EIG00231:       0.5564082    0.5577589    0.5662005    0.5781471    0.5844055
:EIG00236:       0.5870827    0.6072245    0.6101271    0.6145032    0.6221775
:EIG00241:       0.6250104    0.6295374    0.6356614    0.6473759    0.6493323
:EIG00246:       0.6690209    0.6754194    0.6782942    0.6901275    0.6992159
 
:EIG00251:       0.7110107    0.7204586    0.7352082    0.7373091    0.7480613
:EIG00256:       0.7501931    0.7564983    0.7672953    0.7729973    0.7860051
:EIG00261:       0.7870066    0.7934509    0.7945042    0.8185574    0.8389566
:EIG00266:       0.8437121    0.8494987    0.8529846    0.8577638    0.8595359
:EIG00271:       0.8654961    0.8732889    0.8766534    0.8886423    0.9058699
:EIG00276:       0.9175428    0.9239886    0.9324008    0.9428265    0.9468248
:EIG00281:       0.9524513    0.9554413    0.9615733    0.9760381    0.9818757
:EIG00286:       0.9835109    0.9871109    1.0020248    1.0092352    1.0107174
:EIG00291:       1.0136384    1.0150317    1.0315047    1.0459291    1.0535093
:EIG00296:       1.0567837    1.0685464    1.0757255    1.0773878    1.0814034
 
:EIG00301:       1.0836479    1.0928163    1.0973233    1.0988659    1.1037661
:EIG00306:       1.1089487    1.1126236    1.1163538    1.1196474    1.1261926
:EIG00311:       1.1286821    1.1321534    1.1428001    1.1443018    1.1486918
:EIG00316:       1.1538538    1.1577154    1.1599311    1.1623437    1.1658912
:EIG00321:       1.1710432    1.1763135    1.1770234    1.1789082    1.1819059
:EIG00326:       1.1869174    1.1914565    1.1980240    1.2094522    1.2141705
:EIG00331:       1.2171244    1.2194461    1.2237146    1.2304501    1.2343641
:EIG00336:       1.2392609    1.2432178    1.2441205    1.2521511    1.2566903
:EIG00341:       1.2631857    1.2659883    1.2714030    1.2766716    1.2802059
:EIG00346:       1.2866472    1.2968140    1.3014959    1.3034315    1.3068995
 
:EIG00351:       1.3149592    1.3285805    1.3299954    1.3326418    1.3429760
:EIG00356:       1.3520149    1.3615004    1.3653564    1.3696914    1.3804732
:EIG00361:       1.3835389    1.3880945    1.3920044    1.3984735    1.4015420
:EIG00366:       1.4129601    1.4176317    1.4204292    1.4274734    1.4300708
:EIG00371:       1.4348446    1.4392363    1.4432660    1.4456216    1.4548566
:EIG00376:       1.4614401    1.4681060    1.4753114    1.4773982    1.4816554
:EIG00381:       1.4843859    1.4856143    1.4866976    1.4996846    1.5023735
:EIG00386:       1.5083279    1.5151796    1.5219583    1.5243030    1.5258784
:EIG00391:       1.5295618    1.5355664    1.5419128    1.5428344    1.5502742
:EIG00396:       1.5578915    1.5611740    1.5647639    1.5760795    1.5773684
 
:EIG00401:       1.5838049    1.5876376    1.6072417    1.6120401    1.6163342
:EIG00406:       1.6223905
       ********************************************************

:KPT   :      NUMBER OF K-POINTS:   144
       Insulator, EF-inconsistency corrected
:GAP (global)   :  0.144630 Ry =     1.968 eV (accurate value if proper k-mesh)
         Bandranges (emin - emax) and occupancy:
:BAN00198: 198   -0.011168    0.001712  2.00000000
:BAN00199: 199   -0.009595    0.002424  2.00000000
:BAN00200: 200   -0.009595    0.002424  2.00000000
:BAN00201: 201   -0.007851    0.006320  2.00000000
:BAN00202: 202   -0.007851    0.007849  2.00000000
:BAN00203: 203    0.004098    0.014092  2.00000000
:BAN00204: 204    0.004098    0.014092  2.00000000
:BAN00205: 205    0.017889    0.046218  2.00000000
:BAN00206: 206    0.019383    0.048877  2.00000000
:BAN00207: 207    0.023742    0.089383  2.00000000
:BAN00208: 208    0.023742    0.124566  2.00000000
:BAN00209: 209    0.269197    0.390245  0.00000000
:BAN00210: 210    0.271542    0.390245  0.00000000
:BAN00211: 211    0.279504    0.396741  0.00000000
:BAN00212: 212    0.296085    0.396741  0.00000000
:BAN00213: 213    0.309953    0.409669  0.00000000
        Energy to separate low and high energystates:   -0.21220


:NOE  : NUMBER OF ELECTRONS          =  416.000

:FER  : F E R M I - ENERGY(TETRAH.M.)=   0.1245664510
:GMA  : POTENTIAL AND CHARGE CUT-OFF  12.00 Ry**.5

:POS001: ATOM   -1 X,Y,Z = 0.50000 0.50000 0.50000  MULT= 4  ZZ= 82.000  Pb        

       LMMAX 28
       LM=   0 0  2 0  2 1 -2 1  2 2 -2 2  4 0  4 1 -4 1  4 2 -4 2  4 3 -4 3  4 4 -4 4  6 0  6 1
        -6 1  6 2 -6 2  6 3 -6 3  6 4 -6 4  6 5 -6 5  6 6 -6 6

:CHA001: TOTAL VALENCE CHARGE INSIDE SPHERE   1 =  31.5182    (RMT=  2.5000 )
:PCS001: PARTIAL CHARGES SPHERE =  1 S,P,D,F,PX,PY,PZ,D-Z2,D-X2Y2,D-XY,D-XZ,D-YZ 
:QTL001: 1.3768 6.3866 9.737514.0149 2.1284 2.1290 2.1292 1.9557 1.9432 1.9545 1.9424 1.9418
        Q-s-low E-s-low   Q-p-low E-p-low   Q-d-low E-d-low   Q-f-low E-f-low
:EPL001:  1.0863 -0.4636    6.0114 -5.8085    9.6702 -1.0811   14.0014 -9.2908
        Q-s-hi  E-s-hi    Q-p-hi  E-p-hi    Q-d-hi  E-d-hi    Q-f-hi  E-f-hi 
:EPH001:  0.2905  0.0282    0.3752 -0.0988    0.0672 -0.0365    0.0134 -0.0393

                      QXX         QXY         QYY         QZZ       UP TO R
:VZZ001:             0.40574     0.79082    -0.21417    -0.19156       2.500

:POS002: ATOM   -2 X,Y,Z = 0.48491 0.94655 0.25000  MULT= 4  ZZ= 55.000  Cs        

       LMMAX 28
       LM=   0 0  1 1 -1 1  2 0  2 2 -2 2  3 1 -3 1  3 3 -3 3  4 0  4 2 -4 2  4 4 -4 4  5 1 -5 1
         5 3 -5 3  5 5 -5 5  6 0  6 2 -6 2  6 4 -6 4  6 6 -6 6

:CHA002: TOTAL VALENCE CHARGE INSIDE SPHERE   2 =  16.3234    (RMT=  2.5000 )
:PCS002: PARTIAL CHARGES SPHERE =  2 S,P,D,F,PX,PY,PZ,D-Z2,D-X2Y2,D-XY,D-XZ,D-YZ 
:QTL002: 1.7981 4.510710.0124 0.0020 1.5026 1.5037 1.5044 2.0019 2.0029 2.0016 2.0025 2.0034
        Q-s-low E-s-low   Q-p-low E-p-low   Q-d-low E-d-low   Q-f-low E-f-low
:EPL002:  1.7880 -1.3987    4.3816 -0.4329    9.9947 -4.8854    0.0001 -0.9383
        Q-s-hi  E-s-hi    Q-p-hi  E-p-hi    Q-d-hi  E-d-hi    Q-f-hi  E-f-hi 
:EPH002:  0.0101 -0.0518    0.1291 -0.0391    0.0177 -0.0256    0.0019 -0.0170

                      QXX         QXY         QYY         QZZ       UP TO R
:VZZ002:             0.78483     2.19364    -0.08135    -0.70348       2.500

:POS003: ATOM   -3 X,Y,Z = 0.56000 0.50750 0.25000  MULT= 4  ZZ= 35.000  Br        

       LMMAX 28
       LM=   0 0  1 1 -1 1  2 0  2 2 -2 2  3 1 -3 1  3 3 -3 3  4 0  4 2 -4 2  4 4 -4 4  5 1 -5 1
         5 3 -5 3  5 5 -5 5  6 0  6 2 -6 2  6 4 -6 4  6 6 -6 6

:CHA003: TOTAL VALENCE CHARGE INSIDE SPHERE   3 =  15.7602    (RMT=  2.5000 )
:PCS003: PARTIAL CHARGES SPHERE =  3 S,P,D,F,PX,PY,PZ,D-Z2,D-X2Y2,D-XY,D-XZ,D-YZ 
:QTL003: 1.7829 3.959810.0141 0.0029 1.3527 1.3593 1.2478 2.0105 2.0003 2.0002 2.0019 2.0012
        Q-s-low E-s-low   Q-p-low E-p-low   Q-d-low E-d-low   Q-f-low E-f-low
:EPL003:  1.7707 -0.9051    0.0873 -0.4819   10.0046 -4.2852    0.0014 -0.6894
        Q-s-hi  E-s-hi    Q-p-hi  E-p-hi    Q-d-hi  E-d-hi    Q-f-hi  E-f-hi 
:EPH003:  0.0122 -0.0529    3.8725 -0.0339    0.0095 -0.0257    0.0015 -0.0668

                      QXX         QXY         QYY         QZZ       UP TO R
:VZZ003:            -9.08794    -0.27018   -11.01149    20.09943       2.500

:POS004: ATOM   -4 X,Y,Z = 0.19962 0.70227 0.46752  MULT= 8  ZZ= 35.000  Br        

       LMMAX 49

:CHA004: TOTAL VALENCE CHARGE INSIDE SPHERE   4 =  15.7592    (RMT=  2.5000 )
:PCS004: PARTIAL CHARGES SPHERE =  4 S,P,D,F,PX,PY,PZ,D-Z2,D-X2Y2,D-XY,D-XZ,D-YZ 
:QTL004: 1.7828 3.959310.0137 0.0028 1.3052 1.2999 1.3542 2.0026 2.0021 2.0071 2.0009 2.0010
        Q-s-low E-s-low   Q-p-low E-p-low   Q-d-low E-d-low   Q-f-low E-f-low
:EPL004:  1.7708 -0.9040    0.0848 -0.4812   10.0044 -4.2842    0.0014 -0.6918
        Q-s-hi  E-s-hi    Q-p-hi  E-p-hi    Q-d-hi  E-d-hi    Q-f-hi  E-f-hi 
:EPH004:  0.0120 -0.0546    3.8745 -0.0329    0.0092 -0.0281    0.0015 -0.0627

                      QXX         QXY         QYY         QZZ       UP TO R
:VZZ004:             3.97597   -14.32917     5.54296    -9.51892       2.500

:CHA  : TOTAL VALENCE CHARGE INSIDE UNIT CELL =     416.000000

:SUM  : SUM OF EIGENVALUES =       -1462.947084844


        1.ATOM      Pb                   15 CORE STATES
:1S 001: 1S               -6466.206165062 Ry
:2S 001: 2S               -1155.197536092 Ry
:2PP001: 2P*              -1109.195037719 Ry
:2P 001: 2P                -948.229995604 Ry
:3S 001: 3S                -276.952919938 Ry
:3PP001: 3P*               -256.230187506 Ry
:3P 001: 3P                -220.312272752 Ry
:3DD001: 3D*               -186.324843849 Ry
:3D 001: 3D                -178.683294372 Ry
:4S 001: 4S                 -62.360719029 Ry
:4PP001: 4P*                -53.395917047 Ry
:4P 001: 4P                 -44.602875581 Ry
:4DD001: 4D*                -30.021266926 Ry
:4D 001: 4D                 -28.380279699 Ry
:5S 001: 5S                 -10.105511542 Ry

        2.ATOM      Cs                   12 CORE STATES
       CORE-FORCE in mRy/a.u. = |F|      Fx             Fy             Fz
:FCO002:   2.ATOM      7.087179966610     -6.800441466791      1.995523925156      0.000000000000

:1S 002: 1S               -2628.651715901 Ry
:2S 002: 2S                -411.714738304 Ry
:2PP002: 2P*               -387.279478918 Ry
:2P 002: 2P                -361.387058026 Ry
:3S 002: 3S                 -85.153066940 Ry
:3PP002: 3P*                -74.950143619 Ry
:3P 002: 3P                 -69.987840897 Ry
:3DD002: 3D*                -52.069589785 Ry
:3D 002: 3D                 -51.016092819 Ry
:4S 002: 4S                 -15.611768767 Ry
:4PP002: 4P*                -11.950749481 Ry
:4P 002: 4P                 -10.938581879 Ry

        3.ATOM      Br                    7 CORE STATES
       CORE-FORCE in mRy/a.u. = |F|      Fx             Fy             Fz
:FCO003:   3.ATOM     81.799505304388    -70.185587152673     42.013598085347      0.000000000000

:1S 003: 1S                -977.914470321 Ry
:2S 003: 2S                -126.708849973 Ry
:2PP003: 2P*               -114.039531521 Ry
:2P 003: 2P                -110.548057941 Ry
:3S 003: 3S                 -16.876834730 Ry
:3PP003: 3P*                -12.472266457 Ry
:3P 003: 3P                 -11.969969210 Ry

        4.ATOM      Br                    7 CORE STATES
       CORE-FORCE in mRy/a.u. = |F|      Fx             Fy             Fz
:FCO004:   4.ATOM    111.640296292285     76.199746245212     62.504389982544     52.443833396353

:1S 004: 1S                -977.913479981 Ry
:2S 004: 2S                -126.707848655 Ry
:2PP004: 2P*               -114.038531628 Ry
:2P 004: 2P                -110.547057824 Ry
:3S 004: 3S                 -16.875819281 Ry
:3PP004: 3P*                -12.471250597 Ry
:3P 004: 3P                 -11.968952881 Ry
:CINT001 Core Integral Atom   1   47.999891
:CINT002 Core Integral Atom   2   35.999909
:CINT003 Core Integral Atom   3   17.999988
:CINT004 Core Integral Atom   4   17.999988

       DENSITY AT NUCLEUS
        JATOM        VALENCE       SEMI-CORE          CORE           TOTAL
:RTO001:   1     2059.038399        0.000000  9910250.415239  9912309.453638
:RTO002:   2      321.524194        0.000000   438173.470341   438494.994535
:RTO003:   3       72.168234        0.000000    45839.372062    45911.540296
:RTO004:   4       72.160343        0.000000    45839.372861    45911.533204
     
       CHARGES OF NEW CHARGE DENSITY
:NTO   : INTERSTITIAL CHARGE =    35.519546
:NPC   : PW Pseudocharge     =   103.052719
:NTO001: CHARGE SPHERE  1    =    79.518068
:NTO002: CHARGE SPHERE  2    =    52.323295
:NTO003: CHARGE SPHERE  3    =    33.760215
:NTO004: CHARGE SPHERE  4    =    33.759146

:NEC01: NUCLEAR AND ELECTRONIC CHARGE    968.00000   967.99903
     
       CHARGES OF OLD CHARGE DENSITY
:OTO   : INTERSTITIAL CHARGE =    35.520590
:OPC   : PW Pseudocharge     =   103.055789
:OTO001: CHARGE SPHERE  1    =    79.518163
:OTO002: CHARGE SPHERE  2    =    52.323301
:OTO003: CHARGE SPHERE  3    =    33.760177
:OTO004: CHARGE SPHERE  4    =    33.759106

:NEC02: NUCLEAR AND ELECTRONIC CHARGE    968.00000   968.00000
     
       CONVERGENCE TEST
:DTO001: DIFFERENCE IN SPHERE  1 =  0.0001371
:DTO002: DIFFERENCE IN SPHERE  2 =  0.0000468
:DTO003: DIFFERENCE IN SPHERE  3 =  0.0000471
:DTO004: DIFFERENCE IN SPHERE  4 =  0.0000491

:DIS  :  CHARGE DISTANCE       ( 0.0001371 for atom    1 spin 1)      0.0000659
 PW Mixed is         2247
 
******************************************************
* MULTISECANT MIXING VER9 RELEASE 10.4.0              *
* Standard Mode with controls                        *
* Fixed density scale                                *
* Regularization       1.000E-04                     *
* Trust Upper Limit    5.000E+00                     *
* Max Number of Memory Steps    8                    *
******************************************************
 
:PWTMP   3.9481E+03  2.5000E+03  5.2571E+03
:PLANE:  PW TOTAL      8.0985 DISTAN   3.15E-04  3.89E-03 %
:CHARG:  CLM/ATOM   1115.7981 DISTAN   9.20E-05  8.25E-06 %
 
Step History
        DMIX         DMIXT        Red     Pred      Trust     Lambda    MagRel    MagAbs     Beta
  3   4.2983E-02   4.2983E-02  9.04E-01  1.00E+00 -1.00E+01  3.53E-02  4.30E-02  7.23E-02  1.00E+00
  4   1.0708E-01   1.0708E-01  8.45E-01  1.00E+00  2.88E-01  1.24E+00  1.07E-01  1.63E-01  9.94E-01
  5   2.6770E-01   1.5512E-01  7.25E-01  7.71E-01  5.73E-01  1.20E+00  2.36E-01  3.03E-01  1.00E+00
  6   3.5000E-01   2.7127E-01  4.72E-01  4.99E-01  1.34E+00  1.09E+00  4.66E-01  4.34E-01  1.00E+00
  7   3.5000E-01   3.5000E-01  5.19E-02  1.05E-01  3.69E+00  8.19E-01  9.66E-01  4.25E-01  1.00E+00
  8   1.7929E-01   1.7929E-01  6.78E-01  8.75E-01  1.14E+01  1.19E+00  3.03E-01  6.91E-03  1.00E+00
  9   3.5000E-01   3.5000E-01  2.45E-01  4.96E-01  1.52E+01  7.71E-01  7.18E-01  1.11E-02  1.00E+00
 10   3.1965E-01   3.1965E-01  4.29E-01  6.90E-01  2.02E+01  8.58E-01  6.78E-01  2.57E-03  1.00E+00
 11   3.5000E-01   3.5000E-01 -1.00E+00  5.57E-01  2.25E+01  1.00E+00  6.81E-01  1.11E-03  1.00E+00
:JACOBIANS    1.709E+00   2.353E+00
  
:NORMS:  1/Froebius, Min, Max, Used   0.9011E+00  0.6471E+00  0.1029E+01  0.9376E+00
:INFO :  Number of Memory Steps    8 Skipping    2
:INFO :  SLambda=    0.8874686360  Max    0.8874686360
:PREDicted Charge, CTotal, PW Trust    9.044E-05   4.852E-04   7.234E-04
:PREDicted DMix, Beta, BLim   4.1453E-01  1.2017E+00  1.7139E+00

Eigenvalues, unscaled except for SY+YY
   #     SY Real        SY Imag          SS             YY         SY+YY Real      SY+YY Imag
   1   3.440851E+00   0.000000E+00   3.534313E+00   4.020667E+00   7.078344E+00   0.000000E+00
   2   2.547770E+00   0.000000E+00   2.451940E+00   2.649664E+00   4.900917E+00   0.000000E+00
   3   6.743099E-01   0.000000E+00   4.472485E-01   1.079332E+00   1.679846E+00   0.000000E+00
   4   8.628604E-02   0.000000E+00   4.219787E-02   1.938382E-01   2.736453E-01   0.000000E+00
   5   2.827855E-02   0.000000E+00   1.597759E-02   4.714568E-02   7.242570E-02   0.000000E+00
   6   6.142147E-03   0.000000E+00   3.521770E-03   9.297800E-03   1.503009E-02   0.000000E+00
   7   3.478350E-06   0.000000E+00   1.319888E-05   4.640279E-05   1.313307E-05   0.000000E+00
   8   2.432842E-05   0.000000E+00   1.140502E-06   9.930053E-06   6.912532E-05   0.000000E+00
 
:INFO :  Singular value  7.091E+00 Weight  1.000E+00 Projection  6.392E-06
:INFO :  Singular value  4.899E+00 Weight  1.000E+00 Projection  7.412E-05
:INFO :  Singular value  1.678E+00 Weight  1.000E+00 Projection -2.928E-04
:INFO :  Singular value  2.738E-01 Weight  1.000E+00 Projection  7.020E-05
:INFO :  Singular value  7.236E-02 Weight  1.000E+00 Projection  4.175E-04
:INFO :  Singular value  1.503E-02 Weight  9.993E-01 Projection  2.252E-03
:INFO :  Singular value  6.916E-05 Weight  2.874E-02 Projection  1.060E-03
:INFO :  Singular value  1.313E-05 Weight  1.065E-03 Projection  1.540E-05
:RANK :  ACTIVE   6.03/8  =  75.36 % ; YY RANK   6.01/8  =  75.15 %
 
:BLIM :  VZERO Control Off
:TRUST:  Step 2.25E+01  Charge 7.74E-02 (e) CTO  2.75E-01 (e) PW  8.22E-01 (e)
:DIRM :  MEMORY  8/8  SCALE   1.000 RED  0.30 PRED  0.56 NEXT  0.62 
:TRAVE:  Charge 2.34E-03 (e) CTO  8.55E-03 (e) PW  3.20E-02 (e)
:DIRP :  |MSR1|= 2.724E-04 |PRATT|= 3.147E-04 ANGLE=  23.2 DEGREES
:DIRQ :  |MSR1|= 2.534E-04 |PRATT|= 3.680E-04 ANGLE=  15.9 DEGREES
:DIRT :  |MSR1|= 3.721E-04 |PRATT|= 4.842E-04 ANGLE=  20.8 DEGREES
:MIX  :   MSD1   REGULARIZATION:  4.02E-04 GREED: 0.35000  Newton 1.00  0.7684                
     
       CHARGES OF MIXED CHARGE DENSITY
:CTO   : INTERSTITIAL CHARGE =    35.520607
:CPC   : PW Pseudocharge     =   103.056047
:CTO001: CHARGE SPHERE  1    =    79.518108
:CTO002: CHARGE SPHERE  2    =    52.323307
:CTO003: CHARGE SPHERE  3    =    33.760191
:CTO004: CHARGE SPHERE  4    =    33.759121

:NEC03: NUCLEAR AND ELECTRONIC CHARGE    968.00000   968.00000

PW CHANGE     H    K    L      Current       Change    Residue
:PTO001:      0    0    0  2.63600396E-02  5.229E-08 -6.332E-08
:PTO006:     -1    0   -1 -2.36613320E-03 -3.663E-08 -3.873E-08
:PTO007:      0    0   -2  2.54220550E-03 -3.978E-07 -6.398E-07
:PTO008:     -1   -1    0  4.84395678E-03 -7.164E-07 -1.201E-06
:PTO009:     -1   -1   -1 -1.04178932E-02 -3.501E-07 -3.808E-07
:PTO012:      0   -2    0  6.83891161E-03  3.036E-07  1.597E-07
:PTO013:     -1   -1   -2  2.13814024E-02  1.384E-06  8.324E-07
:PTO014:     -2    0    0  6.81684294E-03  3.722E-07  2.386E-07
:PTO015:      0   -2   -1  5.68141380E-03  3.937E-07  4.191E-07
:PTO018:     -1   -2    0 -1.03016812E-02  8.040E-08  7.973E-08
:PTO019:     -2   -1    0  1.13107781E-02 -1.198E-07 -1.467E-07
:PTO021:     -1   -2   -1  1.17640621E-02 -1.743E-07 -2.107E-07

:ENE  : ********** TOTAL ENERGY IN Ry =      -292309.60125799

       TOTAL FORCE IN mRy/a.u. = |F|     Fx             Fy             Fz     with/without FOR in case.in2
:FOR001:   1.ATOM          0.000          0.000          0.000          0.000 partial forces
:FOR002:   2.ATOM          0.069          0.069         -0.004          0.000 partial forces
:FOR003:   3.ATOM         25.489         23.038        -10.907          0.000 partial forces
:FOR004:   4.ATOM         34.988        -23.641        -19.599        -16.768 partial forces
       TOTAL FORCE WITH RESPECT TO GLOBAL CARTESIAN COORDINATES:
:FCA001:   1.ATOM                         0.000          0.000          0.000 partial forces
:FCA002:   2.ATOM                         0.069         -0.004          0.000 partial forces
:FCA003:   3.ATOM                        23.038        -10.907          0.000 partial forces
:FCA004:   4.ATOM                       -23.641        -19.599        -16.768 partial forces
       TOTAL FORCE WITH RESPECT TO THE GLOBAL COORDINATE SYSTEM:
:FGL001:   1.ATOM                 0.000000000     0.000000000     0.000000000 partial forces
:FGL002:   2.ATOM                 0.068578064    -0.004176053     0.000000000 partial forces
:FGL003:   3.ATOM                23.037507164   -10.907449336     0.000000000 partial forces
:FGL004:   4.ATOM               -23.641175372   -19.598903461   -16.767512827 partial forces
