
:LABEL1: Calculations in /home/cmueller/wien/FZU/src/perovskite/Ecore_9
:LABEL2: on cv036 at Fri Jun 21 09:11:51 PM CEST 2024
:LABEL3: using WIEN2k_19.1 (Release 25/6/2019) in /home/cmueller/WIENROOT
:LABEL4: using the command: run_lapw
 Flat Integration
 New Mode for Coulomb Integral
 Consistent 3/8+Simpson combinations
 Extension of core to zero
 LDM version in phi
 Fifth-order quadrature in outwin


            ---------
:ITE001:  1. ITERATION
            ---------

:NATO :    4 INDEPENDENT AND   20 TOTAL ATOMS IN UNITCELL
       SUBSTANCE: blebleble                                                   

       LATTICE                      = P   
:POT  : POTENTIAL OPTION EX_PBE EC_PBE VX_PBE VC_PBE
:LAT  : LATTICE CONSTANTS= 15.19415 15.66734 22.08372    1.571    1.571    1.571
:VOL  : UNIT CELL VOLUME =    5257.07306
       MODE OF CALCULATION IS       = RELA
       NON-SPINPOLARIZED CALCULATION
:IFFT  : FFT-parameters:  120  120  180 Factor: 2.00


   CONVERGENCE PARAMETER FOR PSEUDOCHARGE: NCON=  9
   MAXIMAL VALUE OF RMT(JATOM)*ABSK(NKK) : RK  =29.99804


:VKCOUL :  VK-COUL convergence: 0.423E-07
       ATOMNUMBER=  1 Pb         VCOUL-ZERO =  0.10897E+00
:EFG001:                        EFG         =     0.00590   *10**21  V / m**2
                               V20  TOT/SRF=     0.00113     0.00195
                               V22  TOT/SRF=    -0.00027    -0.00077
                               V22M TOT/SRF=    -0.00029    -0.00093
                               V21  TOT/SRF=     0.00242     0.00330
                               V21M TOT/SRF=    -0.00473    -0.00516

             -0.00092   -0.00029    0.00242       -0.00105    0.00000    0.00000
             -0.00029   -0.00038   -0.00473        0.00000    0.00590    0.00000
              0.00242   -0.00473    0.00130        0.00000    0.00000   -0.00485

         MAIN DIRECTIONS OF THE EFG   1.0000  0.3879 -0.5274
                                      0.5164 -0.7730  1.0000
                                      0.0112  1.0000  0.9776
:ANG001:  ANGLE WITH OLD X-AXIS =        33.2

:ETA001:                         ASYMM. ETA =     0.64411


       ATOMNUMBER=  2 Cs         VCOUL-ZERO = -0.49697E-01
:EFG002:                        EFG         =     0.00079   *10**21  V / m**2
                               V20  TOT/SRF=    -0.00038    -0.00033
                               V22  TOT/SRF=    -0.00031    -0.00059
                               V22M TOT/SRF=    -0.00049    -0.00143
                               V21  TOT/SRF=     0.00000     0.00000
                               V21M TOT/SRF=     0.00000     0.00000

             -0.00009   -0.00049    0.00000       -0.00036    0.00000    0.00000
             -0.00049    0.00053    0.00000        0.00000    0.00079    0.00000
              0.00000    0.00000   -0.00043        0.00000    0.00000   -0.00043

         MAIN DIRECTIONS OF THE EFG   1.0000 -0.5459  0.0000
                                      0.5459  1.0000  0.0000
                                      0.0000  0.0000  1.0000
:ANG002:  ANGLE WITH OLD X-AXIS =        28.6

:ETA002:                         ASYMM. ETA =     0.09356


       ATOMNUMBER=  3 Br         VCOUL-ZERO =  0.28031E+00
:EFG003:                        EFG         =    -0.02231   *10**21  V / m**2
                               V20  TOT/SRF=     0.01925     0.05961
                               V22  TOT/SRF=     0.00410     0.00562
                               V22M TOT/SRF=    -0.01042    -0.01150
                               V21  TOT/SRF=     0.00000     0.00000
                               V21M TOT/SRF=     0.00000     0.00000

             -0.00702   -0.01042    0.00000        0.00008    0.00000    0.00000
             -0.01042   -0.01521    0.00000        0.00000   -0.02231    0.00000
              0.00000    0.00000    0.02223        0.00000    0.00000    0.02223

         MAIN DIRECTIONS OF THE EFG   1.0000  0.6813  0.0000
                                     -0.6813  1.0000  0.0000
                                      0.0000  0.0000  1.0000
:ANG003:  ANGLE WITH OLD X-AXIS =        34.3

:ETA003:                         ASYMM. ETA =     0.99277


       ATOMNUMBER=  4 Br         VCOUL-ZERO =  0.28025E+00
:EFG004:                        EFG         =     0.02212   *10**21  V / m**2
                               V20  TOT/SRF=    -0.00625    -0.02554
                               V22  TOT/SRF=    -0.00319    -0.00440
                               V22M TOT/SRF=    -0.01622    -0.04902
                               V21  TOT/SRF=    -0.00456    -0.00425
                               V21M TOT/SRF=     0.00611     0.00781

              0.00042   -0.01622   -0.00456        0.02212    0.00000    0.00000
             -0.01622    0.00679    0.00611        0.00000   -0.01296    0.00000
             -0.00456    0.00611   -0.00722        0.00000    0.00000   -0.00916

         MAIN DIRECTIONS OF THE EFG  -0.8182  1.0000  0.2387
                                      1.0000  0.8580 -0.1399
                                      0.3353 -0.1186  1.0000
:ANG004:  ANGLE WITH OLD X-AXIS =       128.5

:ETA004:                         ASYMM. ETA =     0.17181


     HELLMANN-FEYNMAN-FORCE IN mRy/a.u. = |F|  Fx       Fy             Fz
:FHF001:   1.ATOM      0.000000000000      0.000000000000      0.000000000000      0.000000000000

     HELLMANN-FEYNMAN-FORCE IN mRy/a.u. = |F|  Fx       Fy             Fz
:FHF002:   2.ATOM     13.212661606233     13.207363767740      0.374124347533      0.000000000000

     HELLMANN-FEYNMAN-FORCE IN mRy/a.u. = |F|  Fx       Fy             Fz
:FHF003:   3.ATOM    220.113963888524    -93.045637347661   -199.480992751907      0.000000000000

     HELLMANN-FEYNMAN-FORCE IN mRy/a.u. = |F|  Fx       Fy             Fz
:FHF004:   4.ATOM    174.202709980683     55.580955909951    107.026757789216    125.708450876934

:FIT001: LUSE= 13 SIGMA OF V-XC FIT FOR ATOM  1  0.7571362E-03
:FIT001: LUSE= 13 SIGMA OF V-XC FIT FOR ATOM  1  0.7571362E-03
:FIT002: LUSE= 13 SIGMA OF V-XC FIT FOR ATOM  2  0.1645418E-04
:FIT002: LUSE= 13 SIGMA OF V-XC FIT FOR ATOM  2  0.1645418E-04
:FIT003: LUSE= 13 SIGMA OF V-XC FIT FOR ATOM  3  0.7450639E-03
:FIT003: LUSE= 13 SIGMA OF V-XC FIT FOR ATOM  3  0.7450639E-03
:FIT004: LUSE= 13 SIGMA OF V-XC FIT FOR ATOM  4  0.6626845E-03
:FIT004: LUSE= 13 SIGMA OF V-XC FIT FOR ATOM  4  0.6626845E-03
:DEN  : DENSITY INTEGRAL  =       -114061.79163689   (Ry)
       ELS_POTENTIAL_AT Z=0 and Z=0.5:  -0.57564  -0.57564
       ELS_POTENTIAL_AT Y=0 and Y=0.5:  -0.47943  -0.47943
:VZERO:v0,v0c,v0x  -1.32226  -0.57564  -0.74662 v5,v5c,v5x  -1.32226  -0.57564  -0.74662
:VZERY:v0,v0c,v0x  -1.13920  -0.47943  -0.65976 v5,v5c,v5x  -1.13920  -0.47943  -0.65976
:VZERX:v0,v0c,v0x  -1.13400  -0.48141  -0.65258 v5,v5c,v5x  -1.13400  -0.48141  -0.65258
:LMAX-WF:   10   Non-Spherical LMAX:   4

          ATOMIC SPHERE DEPENDENT PARAMETERS FOR ATOM  Pb        
:e__0001: OVERALL ENERGY PARAMETER IS    0.3000
          OVERALL BASIS SET ON ATOM IS LAPW
:E1_0001: E( 1)=    0.3000
             APW+lo
:E1_0001: E( 1)=   -5.6297   E(BOTTOM)=   -5.650   E(TOP)=   -5.610  3  3   112
             LOCAL ORBITAL
:E2_0001: E( 2)=    0.7000
             APW+lo
:E2_0001: E( 2)=   -0.9369   E(BOTTOM)=   -1.175   E(TOP)=   -0.699  2  3   123
             LOCAL ORBITAL
:E0_0001: E( 0)=    0.3000
             APW+lo

          ATOMIC SPHERE DEPENDENT PARAMETERS FOR ATOM  Cs        
:e__0002: OVERALL ENERGY PARAMETER IS    0.3000
          OVERALL BASIS SET ON ATOM IS LAPW
:E2_0002: E( 2)=    0.3000
             APW+lo
:E2_0002: E( 2)=   -4.8572   E(BOTTOM)=   -4.869   E(TOP)=   -4.846  1  2   120
             LOCAL ORBITAL
:E0_0002: E( 0)=    0.7000
             APW+lo
:E0_0002: E( 0)=   -1.3662   E(BOTTOM)=   -2.049   E(TOP)=   -0.683  4  5   169
             LOCAL ORBITAL
:E1_0002: E( 1)=    0.7000
             APW+lo
:E1_0002: E( 1)=   -0.1934   E(BOTTOM)=   -1.166   E(TOP)=    0.779  3  4   199
             LOCAL ORBITAL

          ATOMIC SPHERE DEPENDENT PARAMETERS FOR ATOM  Br        
:e__0003: OVERALL ENERGY PARAMETER IS    0.3000
          OVERALL BASIS SET ON ATOM IS LAPW
:E2_0003: E( 2)=    0.3000
             APW+lo
:E2_0003: E( 2)=   -4.3424   E(BOTTOM)=   -4.346   E(TOP)=   -4.339  1  1   115
             LOCAL ORBITAL
:E0_0003: E( 0)=    0.7000
             APW+lo
:E0_0003: E( 0)=   -0.9471   E(BOTTOM)=   -1.512   E(TOP)=   -0.382  3  4   158
             LOCAL ORBITAL
:E1_0003: E( 1)=    0.3000
             APW+lo

          ATOMIC SPHERE DEPENDENT PARAMETERS FOR ATOM  Br        
:e__0004: OVERALL ENERGY PARAMETER IS    0.3000
          OVERALL BASIS SET ON ATOM IS LAPW
:E2_0004: E( 2)=    0.3000
             APW+lo
:E2_0004: E( 2)=   -4.3426   E(BOTTOM)=   -4.346   E(TOP)=   -4.339  1  1   119
             LOCAL ORBITAL
:E0_0004: E( 0)=    0.7000
             APW+lo
:E0_0004: E( 0)=   -0.9473   E(BOTTOM)=   -1.512   E(TOP)=   -0.382  3  4   153
             LOCAL ORBITAL
:E1_0004: E( 1)=    0.3000
             APW+lo

       K=   0.04545   0.04545   0.07143            1
:RKM  : MATRIX SIZE  2251LOs: 320  RKM= 7.00  WEIGHT= 8.00  PGR:    
       EIGENVALUES ARE:
:EIG00001:      -5.6260233   -5.6260202   -5.6260143   -5.6260114   -5.6256969
:EIG00006:      -5.6256885   -5.6256847   -5.6256821   -5.6255204   -5.6255190
:EIG00011:      -5.6255107   -5.6255036   -4.8544135   -4.8544066   -4.8543945
:EIG00016:      -4.8543940   -4.8543909   -4.8543840   -4.8543812   -4.8543797
:EIG00021:      -4.8543758   -4.8543642   -4.8543589   -4.8543571   -4.8543421
:EIG00026:      -4.8543381   -4.8543222   -4.8543117   -4.8543088   -4.8543087
:EIG00031:      -4.8542974   -4.8542869   -4.3422809   -4.3422734   -4.3422701
:EIG00036:      -4.3422678   -4.3422641   -4.3422636   -4.3422586   -4.3422521
:EIG00041:      -4.3421713   -4.3421671   -4.3421650   -4.3421597   -4.3420072
:EIG00046:      -4.3420030   -4.3419986   -4.3419929   -4.3419917   -4.3419896
 
:EIG00051:      -4.3419830   -4.3419725   -4.3419525   -4.3419426   -4.3419337
:EIG00056:      -4.3419294   -4.3419269   -4.3419257   -4.3419248   -4.3419165
:EIG00061:      -4.3419144   -4.3419106   -4.3419048   -4.3419011   -4.3416394
:EIG00066:      -4.3416352   -4.3416289   -4.3416250   -4.3414995   -4.3414978
:EIG00071:      -4.3414903   -4.3414901   -4.3414835   -4.3414802   -4.3414766
:EIG00076:      -4.3414707   -4.3414589   -4.3414519   -4.3414438   -4.3414405
:EIG00081:      -4.3414399   -4.3414368   -4.3414300   -4.3414289   -4.3413185
:EIG00086:      -4.3413120   -4.3413088   -4.3413055   -4.3412456   -4.3412440
:EIG00091:      -4.3412395   -4.3412330   -1.3724538   -1.3722885   -1.3721047
:EIG00096:      -1.3720006   -0.9680621   -0.9679013   -0.9678192   -0.9675348
 
:EIG00101:      -0.9674598   -0.9663329   -0.9486576   -0.9484178   -0.9481205
:EIG00106:      -0.9479868   -0.9476222   -0.9472010   -0.9032500   -0.9031161
:EIG00111:      -0.9026813   -0.8964902   -0.8963521   -0.8962905   -0.8962147
:EIG00116:      -0.8961450   -0.8960825   -0.8957005   -0.8956731   -0.8955015
:EIG00121:      -0.8954576   -0.8953130   -0.8951651   -0.8928385   -0.8812501
:EIG00126:      -0.8701350   -0.8698395   -0.8693008   -0.4146076   -0.4122530
:EIG00131:      -0.4118075   -0.4104798   -0.4096949   -0.4093081   -0.4087996
:EIG00136:      -0.4078128   -0.4076201   -0.4073948   -0.4069181   -0.4062011
:EIG00141:      -0.4054464   -0.3660113   -0.3254570   -0.2640837   -0.1484016
:EIG00146:      -0.1475260   -0.1445347   -0.1404448   -0.1386107   -0.1296405
 
:EIG00151:      -0.0987648   -0.0810641   -0.0780721   -0.0765693   -0.0751827
:EIG00156:      -0.0680658   -0.0592593   -0.0537742   -0.0514989   -0.0489456
:EIG00161:      -0.0461455   -0.0438071   -0.0425797   -0.0406298   -0.0400276
:EIG00166:      -0.0386995   -0.0321101   -0.0272925   -0.0267999   -0.0263420
:EIG00171:      -0.0248653   -0.0234638   -0.0222508   -0.0199762   -0.0183698
:EIG00176:      -0.0181570   -0.0002350    0.0561510    0.1047870    0.1584421
:EIG00181:       0.3395895    0.3433230    0.3470906    0.3720648    0.3853302
:EIG00186:       0.4029180    0.4041323    0.4831588    0.4888192    0.4963571
:EIG00191:       0.5011231    0.5307635    0.5319098    0.5364370    0.5449288
:EIG00196:       0.5484395    0.5499481    0.5523326    0.5575910    0.5588834
 
:EIG00201:       0.5742658    0.5778840    0.5781299    0.5851942    0.5995435
:EIG00206:       0.6040488    0.6070715    0.6138051    0.6146066    0.6195525
:EIG00211:       0.6220912    0.6304980    0.6366449    0.6415253    0.6494715
:EIG00216:       0.6576437    0.6597021    0.6761419    0.6826207    0.6912097
:EIG00221:       0.6988470    0.7029316    0.7161682    0.7329058    0.7431506
:EIG00226:       0.7501912    0.7575806    0.7605323    0.7627197    0.7680573
:EIG00231:       0.7774277    0.7872116    0.7882391    0.7927191    0.7958026
:EIG00236:       0.8337442    0.8523474    0.8579266    0.8609469    0.8655504
:EIG00241:       0.8666600    0.8696628    0.8733824    0.8831496    0.8977081
:EIG00246:       0.8996335    0.9100012    0.9256384    0.9381868    0.9454886
 
:EIG00251:       0.9532251    0.9578651    0.9596314    0.9694415    0.9799622
:EIG00256:       0.9859419    0.9967194    0.9988247    1.0098687    1.0136932
:EIG00261:       1.0149951    1.0182035    1.0265326    1.0283805    1.0417653
:EIG00266:       1.0579765    1.0656638    1.0731318    1.0788492    1.0863256
:EIG00271:       1.0881309    1.0913263    1.0949041    1.0999878    1.1024568
:EIG00276:       1.1054172    1.1095166    1.1138466    1.1186095    1.1260513
:EIG00281:       1.1271737    1.1333812    1.1363192    1.1416804    1.1474888
:EIG00286:       1.1508238    1.1562428    1.1621480    1.1654825    1.1703774
:EIG00291:       1.1717278    1.1735417    1.1791846    1.1831866    1.1844637
:EIG00296:       1.1880283    1.1938300    1.1952951    1.2006511    1.2046887
 
:EIG00301:       1.2146480    1.2210529    1.2238787    1.2267584    1.2306001
:EIG00306:       1.2353231    1.2403276    1.2410041    1.2489584    1.2508459
:EIG00311:       1.2556950    1.2619326    1.2695205    1.2750517    1.2814080
:EIG00316:       1.2843844    1.2885808    1.2956227    1.3094386    1.3128981
:EIG00321:       1.3160937    1.3175208    1.3240766    1.3289789    1.3407021
:EIG00326:       1.3421089    1.3577817    1.3616749    1.3693225    1.3714576
:EIG00331:       1.3794619    1.3827211    1.3875049    1.3903293    1.4019904
:EIG00336:       1.4078309    1.4089320    1.4180566    1.4222688    1.4286118
:EIG00341:       1.4328211    1.4354457    1.4425907    1.4453708    1.4518176
:EIG00346:       1.4554374    1.4651486    1.4671242    1.4704177    1.4725311
 
:EIG00351:       1.4776841    1.4811599    1.4866127    1.4906904    1.4978542
:EIG00356:       1.4999445    1.5017747    1.5093310    1.5148284    1.5186470
:EIG00361:       1.5229045    1.5271377    1.5282488    1.5313333    1.5418188
:EIG00366:       1.5445672    1.5522085    1.5621312    1.5642295    1.5756265
:EIG00371:       1.5812853    1.5850347    1.5897063    1.5959017    1.6096737
:EIG00376:       1.6122577    1.6237792    1.6271588    1.6364149    1.6372215
:EIG00381:       1.6431433    1.6549320    1.6581526    1.6598186    1.6648188
:EIG00386:       1.6740644    1.6777313    1.6787536    1.6789863    1.6888679
:EIG00391:       1.6964165    1.7097064    1.7107660    1.7144329    1.7205582
:EIG00396:       1.7244052    1.7275309    1.7323390    1.7355459    1.7410299
 
:EIG00401:       1.7463105    1.7486478    1.7520288    1.7571606    1.7628707
:EIG00406:       1.7650798    1.7708754    1.7746258    1.7875279    1.7907283
:EIG00411:       1.7934868    1.7966762    1.8061485    1.8097348    1.8165591
:EIG00416:       1.8211007    1.8224061    1.8296200    1.8306766    1.8337711
:EIG00421:       1.8375435    1.8421711    1.8448711    1.8490739    1.8557705
:EIG00426:       1.8654845    1.8773918    1.8834506    1.8860211    1.8885965
:EIG00431:       1.8999619    1.9005778    1.9033597    1.9097681    1.9152134
:EIG00436:       1.9187321    1.9234164    1.9284542    1.9341914    1.9383111
:EIG00441:       1.9424894    1.9468698    1.9532801    1.9587745    1.9636842
:EIG00446:       1.9668877    1.9741513    1.9811716    1.9849044    1.9894042
 
:EIG00451:       1.9973762
       ********************************************************

:KPT   :      NUMBER OF K-POINTS:   144
       Insulator, EF-inconsistency corrected
:GAP (global)   :  0.181147 Ry =     2.465 eV (accurate value if proper k-mesh)
         Bandranges (emin - emax) and occupancy:
:BAN00170: 170   -0.036462   -0.025122  2.00000000
:BAN00171: 171   -0.033428   -0.024865  2.00000000
:BAN00172: 172   -0.033428   -0.023464  2.00000000
:BAN00173: 173   -0.029096   -0.021509  2.00000000
:BAN00174: 174   -0.028255   -0.019446  2.00000000
:BAN00175: 175   -0.023374   -0.013913  2.00000000
:BAN00176: 176   -0.023314   -0.013913  2.00000000
:BAN00177: 177   -0.000235    0.067224  2.00000000
:BAN00178: 178    0.010536    0.068990  2.00000000
:BAN00179: 179    0.040948    0.120534  2.00000000
:BAN00180: 180    0.040948    0.158442  2.00000000
:BAN00181: 181    0.339589    0.441295  0.00000000
:BAN00182: 182    0.343323    0.441295  0.00000000
:BAN00183: 183    0.347091    0.447699  0.00000000
:BAN00184: 184    0.364965    0.447699  0.00000000
:BAN00185: 185    0.381553    0.465491  0.00000000
        Energy to separate low and high energystates:   -0.46461


:NOE  : NUMBER OF ELECTRONS          =  360.000

:FER  : F E R M I - ENERGY(TETRAH.M.)=   0.1584421197
:GMA  : POTENTIAL AND CHARGE CUT-OFF  12.00 Ry**.5

:POS001: ATOM   -1 X,Y,Z = 0.50000 0.50000 0.50000  MULT= 4  ZZ= 82.000  Pb        

       LMMAX 28
       LM=   0 0  2 0  2 1 -2 1  2 2 -2 2  4 0  4 1 -4 1  4 2 -4 2  4 3 -4 3  4 4 -4 4  6 0  6 1
        -6 1  6 2 -6 2  6 3 -6 3  6 4 -6 4  6 5 -6 5  6 6 -6 6

:CHA001: TOTAL VALENCE CHARGE INSIDE SPHERE   1 =  17.3054    (RMT=  2.5000 )
:PCS001: PARTIAL CHARGES SPHERE =  1 S,P,D,F,PX,PY,PZ,D-Z2,D-X2Y2,D-XY,D-XZ,D-YZ 
:QTL001: 1.3301 6.2580 9.7026 0.0124 2.0851 2.0858 2.0870 1.9483 1.9366 1.9470 1.9358 1.9350
        Q-s-low E-s-low   Q-p-low E-p-low   Q-d-low E-d-low   Q-f-low E-f-low
:EPL001:  0.0177 -0.9545    6.0037 -5.6190    9.6271 -0.8979    0.0010 -0.9574
        Q-s-hi  E-s-hi    Q-p-hi  E-p-hi    Q-d-hi  E-d-hi    Q-f-hi  E-f-hi 
:EPH001:  1.3124 -0.2171    0.2542 -0.0907    0.0756 -0.0566    0.0114 -0.0583

                      QXX         QXY         QYY         QZZ       UP TO R
:VZZ001:             0.60385     0.63183     0.14800    -0.75185       2.500

:POS002: ATOM   -2 X,Y,Z = 0.48491 0.94655 0.25000  MULT= 4  ZZ= 55.000  Cs        

       LMMAX 28
       LM=   0 0  1 1 -1 1  2 0  2 2 -2 2  3 1 -3 1  3 3 -3 3  4 0  4 2 -4 2  4 4 -4 4  5 1 -5 1
         5 3 -5 3  5 5 -5 5  6 0  6 2 -6 2  6 4 -6 4  6 6 -6 6

:CHA002: TOTAL VALENCE CHARGE INSIDE SPHERE   2 =  16.2947    (RMT=  2.5000 )
:PCS002: PARTIAL CHARGES SPHERE =  2 S,P,D,F,PX,PY,PZ,D-Z2,D-X2Y2,D-XY,D-XZ,D-YZ 
:QTL002: 1.7960 4.487510.0093 0.0018 1.4951 1.4960 1.4964 2.0014 2.0022 2.0011 2.0019 2.0026
        Q-s-low E-s-low   Q-p-low E-p-low   Q-d-low E-d-low   Q-f-low E-f-low
:EPL002:  1.7865 -1.3718    0.0022 -0.9454    9.9946 -4.8543    0.0001 -1.0404
        Q-s-hi  E-s-hi    Q-p-hi  E-p-hi    Q-d-hi  E-d-hi    Q-f-hi  E-f-hi 
:EPH002:  0.0095 -0.0770    4.4853 -0.3968    0.0147 -0.0520    0.0017 -0.0450

                      QXX         QXY         QYY         QZZ       UP TO R
:VZZ002:             0.54774     1.59484    -0.11863    -0.42911       2.500

:POS003: ATOM   -3 X,Y,Z = 0.56000 0.50750 0.25000  MULT= 4  ZZ= 35.000  Br        

       LMMAX 28
       LM=   0 0  1 1 -1 1  2 0  2 2 -2 2  3 1 -3 1  3 3 -3 3  4 0  4 2 -4 2  4 4 -4 4  5 1 -5 1
         5 3 -5 3  5 5 -5 5  6 0  6 2 -6 2  6 4 -6 4  6 6 -6 6

:CHA003: TOTAL VALENCE CHARGE INSIDE SPHERE   3 =  15.9553    (RMT=  2.5000 )
:PCS003: PARTIAL CHARGES SPHERE =  3 S,P,D,F,PX,PY,PZ,D-Z2,D-X2Y2,D-XY,D-XZ,D-YZ 
:QTL003: 1.7970 4.141310.0141 0.0024 1.3989 1.4027 1.3397 2.0109 2.0004 2.0002 2.0017 2.0009
        Q-s-low E-s-low   Q-p-low E-p-low   Q-d-low E-d-low   Q-f-low E-f-low
:EPL003:  1.7662 -0.9479    0.0063 -0.9038   10.0001 -4.3411    0.0006 -0.9253
        Q-s-hi  E-s-hi    Q-p-hi  E-p-hi    Q-d-hi  E-d-hi    Q-f-hi  E-f-hi 
:EPH003:  0.0308 -0.2384    4.1350 -0.0589    0.0140 -0.1100    0.0018 -0.1584

                      QXX         QXY         QYY         QZZ       UP TO R
:VZZ003:            -5.13941    -0.36327    -6.35673    11.49614       2.500

:POS004: ATOM   -4 X,Y,Z = 0.19962 0.70227 0.46752  MULT= 8  ZZ= 35.000  Br        

       LMMAX 49

:CHA004: TOTAL VALENCE CHARGE INSIDE SPHERE   4 =  15.9560    (RMT=  2.5000 )
:PCS004: PARTIAL CHARGES SPHERE =  4 S,P,D,F,PX,PY,PZ,D-Z2,D-X2Y2,D-XY,D-XZ,D-YZ 
:QTL004: 1.7968 4.142710.0137 0.0024 1.3729 1.3699 1.3999 2.0027 2.0019 2.0073 2.0008 2.0009
        Q-s-low E-s-low   Q-p-low E-p-low   Q-d-low E-d-low   Q-f-low E-f-low
:EPL004:  1.7666 -0.9479    0.0061 -0.9027   10.0000 -4.3413    0.0006 -0.9279
        Q-s-hi  E-s-hi    Q-p-hi  E-p-hi    Q-d-hi  E-d-hi    Q-f-hi  E-f-hi 
:EPH004:  0.0301 -0.2387    4.1366 -0.0590    0.0136 -0.1123    0.0018 -0.1531

                      QXX         QXY         QYY         QZZ       UP TO R
:VZZ004:             2.16544    -8.20711     3.11564    -5.28108       2.500

:CHA  : TOTAL VALENCE CHARGE INSIDE UNIT CELL =     360.000000

:SUM  : SUM OF EIGENVALUES =        -936.003265695


        1.ATOM      Pb                   17 CORE STATES
:1S 001: 1S               -6465.856478861 Ry
:2S 001: 2S               -1154.903306790 Ry
:2PP001: 2P*              -1108.893817011 Ry
:2P 001: 2P                -947.935173972 Ry
:3S 001: 3S                -276.693360124 Ry
:3PP001: 3P*               -255.968010997 Ry
:3P 001: 3P                -220.054280836 Ry
:3DD001: 3D*               -186.062537820 Ry
:3D 001: 3D                -178.422247597 Ry
:4S 001: 4S                 -62.128808944 Ry
:4PP001: 4P*                -53.163996678 Ry
:4P 001: 4P                 -44.373404565 Ry
:4DD001: 4D*                -29.792605091 Ry
:4D 001: 4D                 -28.152442018 Ry
:5S 001: 5S                  -9.904885030 Ry
:4FF001: 4F*                 -9.280070916 Ry
:4F 001: 4F                  -8.910355399 Ry

        2.ATOM      Cs                   12 CORE STATES
       CORE-FORCE in mRy/a.u. = |F|      Fx             Fy             Fz
:FCO002:   2.ATOM      8.842542940986     -8.835064566040     -0.363592872713      0.000000000000

:1S 002: 1S               -2628.589836052 Ry
:2S 002: 2S                -411.663315835 Ry
:2PP002: 2P*               -387.226059542 Ry
:2P 002: 2P                -361.334303543 Ry
:3S 002: 3S                 -85.113558932 Ry
:3PP002: 3P*                -74.910137637 Ry
:3P 002: 3P                 -69.948285401 Ry
:3DD002: 3D*                -52.028973622 Ry
:3D 002: 3D                 -50.975649671 Ry
:4S 002: 4S                 -15.579493186 Ry
:4PP002: 4P*                -11.918652724 Ry
:4P 002: 4P                 -10.906723180 Ry

        3.ATOM      Br                    7 CORE STATES
       CORE-FORCE in mRy/a.u. = |F|      Fx             Fy             Fz
:FCO003:   3.ATOM    113.798211866841     46.855090037281    103.704549377974      0.000000000000

:1S 003: 1S                -977.960077086 Ry
:2S 003: 2S                -126.757186875 Ry
:2PP003: 2P*               -114.087264181 Ry
:2P 003: 2P                -110.595877631 Ry
:3S 003: 3S                 -16.930995736 Ry
:3PP003: 3P*                -12.526450390 Ry
:3P 003: 3P                 -12.024239283 Ry

        4.ATOM      Br                    7 CORE STATES
       CORE-FORCE in mRy/a.u. = |F|      Fx             Fy             Fz
:FCO004:   4.ATOM     88.726814992281    -27.631481055139    -54.539348517191    -64.299365601025

:1S 004: 1S                -977.960247445 Ry
:2S 004: 2S                -126.757357083 Ry
:2PP004: 2P*               -114.087434426 Ry
:2P 004: 2P                -110.596047870 Ry
:3S 004: 3S                 -16.931164448 Ry
:3PP004: 3P*                -12.526618974 Ry
:3P 004: 3P                 -12.024407776 Ry
:CINT001 Core Integral Atom   1   61.999872
:CINT002 Core Integral Atom   2   35.999909
:CINT003 Core Integral Atom   3   17.999989
:CINT004 Core Integral Atom   4   17.999989

       DENSITY AT NUCLEUS
        JATOM        VALENCE       SEMI-CORE          CORE           TOTAL
:RTO001:   1     1927.889567        0.000000  9910093.485976  9912021.375543
:RTO002:   2      320.878675        0.000000   438170.878700   438491.757375
:RTO003:   3       73.645515        0.000000    45839.135817    45912.781332
:RTO004:   4       73.629439        0.000000    45839.135906    45912.765345
     
       CHARGES OF NEW CHARGE DENSITY
:NTO   : INTERSTITIAL CHARGE =    34.130293
:NPC   : PW Pseudocharge     =   103.575924
:NTO001: CHARGE SPHERE  1    =    79.305275
:NTO002: CHARGE SPHERE  2    =    52.294594
:NTO003: CHARGE SPHERE  3    =    33.955315
:NTO004: CHARGE SPHERE  4    =    33.955991

:NEC01: NUCLEAR AND ELECTRONIC CHARGE    968.00000   967.99896
     
       CHARGES OF OLD CHARGE DENSITY
:OTO   : INTERSTITIAL CHARGE =    36.640775
:OPC   : PW Pseudocharge     =   131.400754
:OTO001: CHARGE SPHERE  1    =    79.809567
:OTO002: CHARGE SPHERE  2    =    52.317982
:OTO003: CHARGE SPHERE  3    =    33.573161
:OTO004: CHARGE SPHERE  4    =    33.572536

:NEC02: NUCLEAR AND ELECTRONIC CHARGE    968.00000   968.02391
     
       CONVERGENCE TEST
:DTO001: DIFFERENCE IN SPHERE  1 =  0.5904847
:DTO002: DIFFERENCE IN SPHERE  2 =  0.0742549
:DTO003: DIFFERENCE IN SPHERE  3 =  0.1900936
:DTO004: DIFFERENCE IN SPHERE  4 =  0.1907640

:DIS  :  CHARGE DISTANCE       ( 0.5904847 for atom    1 spin 1)      0.2472723
 PW Mixed is         2247
 
******************************************************
* MULTISECANT MIXING VER9 RELEASE 10.4.0              *
* Standard Mode with controls                        *
* Fixed density scale                                *
* Regularization       1.000E-04                     *
* Trust Upper Limit    5.000E+00                     *
* Max Number of Memory Steps    8                    *
******************************************************
 
:PWTMP   3.9481E+03  2.5000E+03  5.2571E+03
:PLANE:  PW TOTAL     10.8628 DISTAN   3.44E+00  3.17E+01 %
:CHARG:  CLM/ATOM   1115.9684 DISTAN   3.42E-01  3.06E-02 %
 
Step History
        DMIX         DMIXT        Red     Pred      Trust     Lambda    MagRel    MagAbs     Beta
  1   3.5000E-02   3.5000E-02 -1.00E+00  1.00E+00 -1.00E+01  1.00E+00  3.50E-02  3.50E-02  1.00E+00
:INFO :  Note, Pratt in use
:TRUST:  Step 3.75E-02  Charge 7.50E-02 (e) CTO  4.43E-01 (e) PW  6.21E-01 (e)
:DIRM :  MEMORY  0/ 8 SCALE   1.000
Performing Pseudo Compensation
Final Pseudo Compensation Rescaling     1.00017E+00
:MIX  :   PRATT  REGULARIZATION:  1.00E-04 GREED: 0.02500                  
     
       CHARGES OF MIXED CHARGE DENSITY
:CTO   : INTERSTITIAL CHARGE =    36.554728
:CPC   : PW Pseudocharge     =   113.725974
:CTO001: CHARGE SPHERE  1    =    79.796960
:CTO002: CHARGE SPHERE  2    =    52.317397
:CTO003: CHARGE SPHERE  3    =    33.582715
:CTO004: CHARGE SPHERE  4    =    33.582123

:NEC03: NUCLEAR AND ELECTRONIC CHARGE    968.00000   968.00000

PW CHANGE     H    K    L      Current       Change    Residue
:PTO001:      0    0    0  2.85863826E-02 -3.358E-03 -5.749E-03
:PTO006:     -1    0   -1 -2.51512622E-03  2.698E-04  3.947E-04
:PTO007:      0    0   -2  3.62198988E-03 -1.836E-03 -3.211E-03
:PTO008:     -1   -1    0  6.90373751E-03 -3.798E-03 -6.503E-03
:PTO009:     -1   -1   -1 -1.09848081E-02  1.552E-03  2.197E-03
:PTO012:      0   -2    0  8.07736211E-03 -2.968E-03 -4.611E-03
:PTO013:     -1   -1   -2  2.61014570E-02 -1.124E-02 -1.798E-02
:PTO014:     -2    0    0  8.02707070E-03 -3.022E-03 -4.675E-03
:PTO015:      0   -2   -1  6.10584789E-03 -1.117E-03 -1.751E-03
:PTO018:     -1   -2    0 -1.09934379E-02  1.251E-03  1.568E-03
:PTO019:     -2   -1    0  1.20941685E-02 -1.407E-03 -1.771E-03
:PTO021:     -1   -2   -1  1.26195351E-02 -1.493E-03 -1.885E-03

:ENE  : ********** TOTAL ENERGY IN Ry =      -292310.02387888

       TOTAL FORCE IN mRy/a.u. = |F|     Fx             Fy             Fz     with/without FOR in case.in2
:FOR001:   1.ATOM          0.000          0.000          0.000          0.000 partial forces
:FOR002:   2.ATOM          4.372          4.372          0.011          0.000 partial forces
:FOR003:   3.ATOM        106.333        -46.191        -95.776          0.000 partial forces
:FOR004:   4.ATOM         85.482         27.949         52.487         61.409 partial forces
       TOTAL FORCE WITH RESPECT TO GLOBAL CARTESIAN COORDINATES:
:FCA001:   1.ATOM                         0.000          0.000          0.000 partial forces
:FCA002:   2.ATOM                         4.372          0.011          0.000 partial forces
:FCA003:   3.ATOM                       -46.191        -95.776          0.000 partial forces
:FCA004:   4.ATOM                        27.949         52.487         61.409 partial forces
       TOTAL FORCE WITH RESPECT TO THE GLOBAL COORDINATE SYSTEM:
:FGL001:   1.ATOM                 0.000000000     0.000000000     0.000000000 partial forces
:FGL002:   2.ATOM                 4.372299202     0.010531475     0.000000000 partial forces
:FGL003:   3.ATOM               -46.190547310   -95.776443374     0.000000000 partial forces
:FGL004:   4.ATOM                27.949474855    52.487409272    61.409085276 partial forces
 Flat Integration
 New Mode for Coulomb Integral
 Consistent 3/8+Simpson combinations
 Extension of core to zero
 LDM version in phi
 Fifth-order quadrature in outwin


            ---------
:ITE002:  2. ITERATION
            ---------

:NATO :    4 INDEPENDENT AND   20 TOTAL ATOMS IN UNITCELL
       SUBSTANCE: blebleble                                                   

       LATTICE                      = P   
:POT  : POTENTIAL OPTION EX_PBE EC_PBE VX_PBE VC_PBE
:LAT  : LATTICE CONSTANTS= 15.19415 15.66734 22.08372    1.571    1.571    1.571
:VOL  : UNIT CELL VOLUME =    5257.07306
       MODE OF CALCULATION IS       = RELA
       NON-SPINPOLARIZED CALCULATION
:IFFT  : FFT-parameters:  120  120  180 Factor: 2.00


   CONVERGENCE PARAMETER FOR PSEUDOCHARGE: NCON=  9
   MAXIMAL VALUE OF RMT(JATOM)*ABSK(NKK) : RK  =29.99804


:VKCOUL :  VK-COUL convergence: 0.234E-08
       ATOMNUMBER=  1 Pb         VCOUL-ZERO =  0.96002E-01
:EFG001:                        EFG         =     0.02722   *10**21  V / m**2
                               V20  TOT/SRF=    -0.01511     0.00190
                               V22  TOT/SRF=     0.00543    -0.00072
                               V22M TOT/SRF=     0.01551    -0.00085
                               V21  TOT/SRF=    -0.00405     0.00319
                               V21M TOT/SRF=    -0.01067    -0.00511

              0.01416    0.01551   -0.00405        0.02722    0.00000    0.00000
              0.01551    0.00330   -0.01067        0.00000   -0.00507    0.00000
             -0.00405   -0.01067   -0.01745        0.00000    0.00000   -0.02215

         MAIN DIRECTIONS OF THE EFG   1.0000 -0.9244 -0.0914
                                      0.7707  1.0000  0.4750
                                     -0.2747 -0.5595  1.0000
:ANG001:  ANGLE WITH OLD X-AXIS =        42.9

:ETA001:                         ASYMM. ETA =     0.62736


       ATOMNUMBER=  2 Cs         VCOUL-ZERO = -0.57456E-01
:EFG002:                        EFG         =     0.04608   *10**21  V / m**2
                               V20  TOT/SRF=    -0.00975    -0.00042
                               V22  TOT/SRF=     0.00806    -0.00052
                               V22M TOT/SRF=     0.03964    -0.00110
                               V21  TOT/SRF=     0.00000     0.00000
                               V21M TOT/SRF=     0.00000     0.00000

              0.01369    0.03964    0.00000        0.04608    0.00000    0.00000
              0.03964   -0.00243    0.00000        0.00000   -0.03482    0.00000
              0.00000    0.00000   -0.01126        0.00000    0.00000   -0.01126

         MAIN DIRECTIONS OF THE EFG   1.0000 -0.8171  0.0000
                                      0.8171  1.0000  0.0000
                                      0.0000  0.0000  1.0000
:ANG002:  ANGLE WITH OLD X-AXIS =        39.3

:ETA002:                         ASYMM. ETA =     0.51121


       ATOMNUMBER=  3 Br         VCOUL-ZERO =  0.27426E+00
:EFG003:                        EFG         =     0.31478   *10**21  V / m**2
                               V20  TOT/SRF=     0.27261     0.06292
                               V22  TOT/SRF=     0.01944     0.00570
                               V22M TOT/SRF=    -0.01946    -0.01138
                               V21  TOT/SRF=     0.00000     0.00000
                               V21M TOT/SRF=     0.00000     0.00000

             -0.13795   -0.01946    0.00000       -0.12988    0.00000    0.00000
             -0.01946   -0.17683    0.00000        0.00000   -0.18490    0.00000
              0.00000    0.00000    0.31478        0.00000    0.00000    0.31478

         MAIN DIRECTIONS OF THE EFG   1.0000  0.4145  0.0000
                                     -0.4145  1.0000  0.0000
                                      0.0000  0.0000  1.0000
:ANG003:  ANGLE WITH OLD X-AXIS =        22.5

:ETA003:                         ASYMM. ETA =     0.17479


       ATOMNUMBER=  4 Br         VCOUL-ZERO =  0.27429E+00
:EFG004:                        EFG         =     0.29763   *10**21  V / m**2
                               V20  TOT/SRF=    -0.12275    -0.02716
                               V22  TOT/SRF=    -0.01519    -0.00448
                               V22M TOT/SRF=    -0.22509    -0.05177
                               V21  TOT/SRF=    -0.02584    -0.00411
                               V21M TOT/SRF=     0.00676     0.00786

              0.05568   -0.22509   -0.02584        0.29763    0.00000    0.00000
             -0.22509    0.08606    0.00676        0.00000   -0.16423    0.00000
             -0.02584    0.00676   -0.14174        0.00000    0.00000   -0.13340

         MAIN DIRECTIONS OF THE EFG  -0.9378  1.0000 -0.4525
                                      1.0000  0.8754 -0.4949
                                      0.0705  0.8857  1.0000
:ANG004:  ANGLE WITH OLD X-AXIS =       130.5

:ETA004:                         ASYMM. ETA =     0.10359


     HELLMANN-FEYNMAN-FORCE IN mRy/a.u. = |F|  Fx       Fy             Fz
:FHF001:   1.ATOM      0.000000000000      0.000000000000      0.000000000000      0.000000000000

     HELLMANN-FEYNMAN-FORCE IN mRy/a.u. = |F|  Fx       Fy             Fz
:FHF002:   2.ATOM     12.780954006565     12.713292335122      1.313386203540      0.000000000000

     HELLMANN-FEYNMAN-FORCE IN mRy/a.u. = |F|  Fx       Fy             Fz
:FHF003:   3.ATOM    205.722154632622    -81.120200748530   -189.053214564594      0.000000000000

     HELLMANN-FEYNMAN-FORCE IN mRy/a.u. = |F|  Fx       Fy             Fz
:FHF004:   4.ATOM    153.784855107577     45.253593643057     94.469261650549    112.594194015711

:FIT001: LUSE= 13 SIGMA OF V-XC FIT FOR ATOM  1  0.7703724E-03
:FIT001: LUSE= 13 SIGMA OF V-XC FIT FOR ATOM  1  0.7703724E-03
:FIT002: LUSE= 13 SIGMA OF V-XC FIT FOR ATOM  2  0.1706829E-04
:FIT002: LUSE= 13 SIGMA OF V-XC FIT FOR ATOM  2  0.1706829E-04
:FIT003: LUSE= 13 SIGMA OF V-XC FIT FOR ATOM  3  0.7197390E-03
:FIT003: LUSE= 13 SIGMA OF V-XC FIT FOR ATOM  3  0.7197390E-03
:FIT004: LUSE= 13 SIGMA OF V-XC FIT FOR ATOM  4  0.6398905E-03
:FIT004: LUSE= 13 SIGMA OF V-XC FIT FOR ATOM  4  0.6398905E-03
:DEN  : DENSITY INTEGRAL  =       -114052.54817181   (Ry)
       ELS_POTENTIAL_AT Z=0 and Z=0.5:  -0.54549  -0.54549
       ELS_POTENTIAL_AT Y=0 and Y=0.5:  -0.45559  -0.45559
:VZERO:v0,v0c,v0x  -1.26716  -0.54549  -0.72166 v5,v5c,v5x  -1.26716  -0.54549  -0.72166
:VZERY:v0,v0c,v0x  -1.09511  -0.45559  -0.63952 v5,v5c,v5x  -1.09511  -0.45559  -0.63952
:VZERX:v0,v0c,v0x  -1.08800  -0.45513  -0.63286 v5,v5c,v5x  -1.08800  -0.45513  -0.63286
:LMAX-WF:   10   Non-Spherical LMAX:   4

          ATOMIC SPHERE DEPENDENT PARAMETERS FOR ATOM  Pb        
:e__0001: OVERALL ENERGY PARAMETER IS    0.1000
          OVERALL BASIS SET ON ATOM IS LAPW
:E1_0001: E( 1)=    0.1000
             APW+lo
:E1_0001: E( 1)=   -5.6471   E(BOTTOM)=   -5.667   E(TOP)=   -5.627  3  3   113
             LOCAL ORBITAL
:E2_0001: E( 2)=    0.5000
             APW+lo
:E2_0001: E( 2)=   -0.9531   E(BOTTOM)=   -1.190   E(TOP)=   -0.716  2  3   129
             LOCAL ORBITAL
:E0_0001: E( 0)=    0.1000
             APW+lo

          ATOMIC SPHERE DEPENDENT PARAMETERS FOR ATOM  Cs        
:e__0002: OVERALL ENERGY PARAMETER IS    0.1000
          OVERALL BASIS SET ON ATOM IS LAPW
:E2_0002: E( 2)=    0.1000
             APW+lo
:E2_0002: E( 2)=   -4.8656   E(BOTTOM)=   -4.877   E(TOP)=   -4.854  1  2   117
             LOCAL ORBITAL
:E0_0002: E( 0)=    0.5000
             APW+lo
:E0_0002: E( 0)=   -1.3743   E(BOTTOM)=   -2.057   E(TOP)=   -0.691  4  5   166
             LOCAL ORBITAL
:E1_0002: E( 1)=    0.5000
             APW+lo
:E1_0002: E( 1)=   -0.2014   E(BOTTOM)=   -1.173   E(TOP)=    0.771  3  4   198
             LOCAL ORBITAL

          ATOMIC SPHERE DEPENDENT PARAMETERS FOR ATOM  Br        
:e__0003: OVERALL ENERGY PARAMETER IS    0.1000
          OVERALL BASIS SET ON ATOM IS LAPW
:E2_0003: E( 2)=    0.1000
             APW+lo
:E2_0003: E( 2)=   -4.3444   E(BOTTOM)=   -4.348   E(TOP)=   -4.341  1  1   123
             LOCAL ORBITAL
:E0_0003: E( 0)=    0.5000
             APW+lo
:E0_0003: E( 0)=   -0.9510   E(BOTTOM)=   -1.517   E(TOP)=   -0.385  3  4   154
             LOCAL ORBITAL
:E1_0003: E( 1)=    0.1000
             APW+lo

          ATOMIC SPHERE DEPENDENT PARAMETERS FOR ATOM  Br        
:e__0004: OVERALL ENERGY PARAMETER IS    0.1000
          OVERALL BASIS SET ON ATOM IS LAPW
:E2_0004: E( 2)=    0.1000
             APW+lo
:E2_0004: E( 2)=   -4.3444   E(BOTTOM)=   -4.348   E(TOP)=   -4.341  1  1   119
             LOCAL ORBITAL
:E0_0004: E( 0)=    0.5000
             APW+lo
:E0_0004: E( 0)=   -0.9511   E(BOTTOM)=   -1.517   E(TOP)=   -0.385  3  4   158
             LOCAL ORBITAL
:E1_0004: E( 1)=    0.1000
             APW+lo

       K=   0.04545   0.04545   0.07143            1
:RKM  : MATRIX SIZE  2251LOs: 320  RKM= 7.00  WEIGHT= 8.00  PGR:    
       EIGENVALUES ARE:
:EIG00001:      -5.6434331   -5.6434300   -5.6434243   -5.6434212   -5.6431227
:EIG00006:      -5.6431136   -5.6431099   -5.6431074   -5.6429391   -5.6429377
:EIG00011:      -5.6429297   -5.6429221   -4.8627931   -4.8627899   -4.8627745
:EIG00016:      -4.8627732   -4.8627704   -4.8627674   -4.8627635   -4.8627560
:EIG00021:      -4.8627515   -4.8627473   -4.8627449   -4.8627436   -4.8627341
:EIG00026:      -4.8627229   -4.8627129   -4.8627029   -4.8626984   -4.8626890
:EIG00031:      -4.8626828   -4.8626682   -4.3442437   -4.3442356   -4.3442332
:EIG00036:      -4.3442327   -4.3442309   -4.3442286   -4.3442243   -4.3442235
:EIG00041:      -4.3442214   -4.3442184   -4.3442155   -4.3442109   -4.3439567
:EIG00046:      -4.3439428   -4.3439399   -4.3439385   -4.3439175   -4.3439090
 
:EIG00051:      -4.3439075   -4.3439024   -4.3439014   -4.3438990   -4.3438928
:EIG00056:      -4.3438816   -4.3438575   -4.3438518   -4.3438400   -4.3438336
:EIG00061:      -4.3438262   -4.3438245   -4.3438178   -4.3438140   -4.3436623
:EIG00066:      -4.3436571   -4.3436520   -4.3436471   -4.3432835   -4.3432832
:EIG00071:      -4.3432746   -4.3432743   -4.3432674   -4.3432641   -4.3432607
:EIG00076:      -4.3432553   -4.3432438   -4.3432349   -4.3432273   -4.3432240
:EIG00081:      -4.3432234   -4.3432207   -4.3432143   -4.3432119   -4.3431966
:EIG00086:      -4.3431901   -4.3431872   -4.3431839   -4.3431307   -4.3431294
:EIG00091:      -4.3431249   -4.3431183   -1.3804048   -1.3802424   -1.3800600
:EIG00096:      -1.3799570   -0.9759733   -0.9757254   -0.9756390   -0.9746215
 
:EIG00101:      -0.9734561   -0.9707078   -0.9527832   -0.9525794   -0.9523979
:EIG00106:      -0.9520914   -0.9516352   -0.9511925   -0.9194551   -0.9192584
:EIG00111:      -0.9187227   -0.9129223   -0.9127872   -0.9127233   -0.9126497
:EIG00116:      -0.9125744   -0.9125155   -0.9121330   -0.9121093   -0.9119481
:EIG00121:      -0.9119048   -0.9117573   -0.9116055   -0.9074263   -0.8945950
:EIG00126:      -0.8824924   -0.8822353   -0.8816987   -0.4223000   -0.4203911
:EIG00131:      -0.4199342   -0.4193530   -0.4177184   -0.4173143   -0.4170875
:EIG00136:      -0.4155669   -0.4155247   -0.4153122   -0.4148855   -0.4140658
:EIG00141:      -0.4131554   -0.3775693   -0.3373697   -0.2769247   -0.1548608
:EIG00146:      -0.1540784   -0.1511279   -0.1469195   -0.1450705   -0.1363385
 
:EIG00151:      -0.1035707   -0.0859513   -0.0828923   -0.0814221   -0.0800602
:EIG00156:      -0.0729203   -0.0640968   -0.0582851   -0.0560677   -0.0534619
:EIG00161:      -0.0507995   -0.0484099   -0.0471030   -0.0450859   -0.0446189
:EIG00166:      -0.0433534   -0.0367797   -0.0324527   -0.0320637   -0.0316850
:EIG00171:      -0.0294631   -0.0280210   -0.0267867   -0.0242770   -0.0227619
:EIG00176:      -0.0224287   -0.0049946    0.0489370    0.0970713    0.1502141
:EIG00181:       0.3293823    0.3330422    0.3370067    0.3617479    0.3749551
:EIG00186:       0.3927398    0.3973108    0.4766364    0.4824281    0.4893993
:EIG00191:       0.4944493    0.5222804    0.5247361    0.5293201    0.5368635
:EIG00196:       0.5411334    0.5417718    0.5452449    0.5507047    0.5520349
 
:EIG00201:       0.5662413    0.5703718    0.5714238    0.5786167    0.5917512
:EIG00206:       0.5952391    0.5992362    0.6052193    0.6065367    0.6116883
:EIG00211:       0.6141615    0.6237837    0.6293638    0.6336486    0.6422461
:EIG00216:       0.6504404    0.6525897    0.6692779    0.6756819    0.6845591
:EIG00221:       0.6916203    0.6962996    0.7094557    0.7260898    0.7363623
:EIG00226:       0.7437834    0.7510570    0.7537175    0.7561984    0.7615327
:EIG00231:       0.7709521    0.7807038    0.7819080    0.7863470    0.7892211
:EIG00236:       0.8269336    0.8459428    0.8513851    0.8540282    0.8590079
:EIG00241:       0.8601640    0.8631046    0.8666775    0.8766676    0.8907768
:EIG00246:       0.8928874    0.9037655    0.9193472    0.9315557    0.9389496
 
:EIG00251:       0.9468848    0.9514927    0.9533910    0.9628562    0.9741035
:EIG00256:       0.9790131    0.9901778    0.9920903    1.0029418    1.0076431
:EIG00261:       1.0089912    1.0125009    1.0200697    1.0218189    1.0358036
:EIG00266:       1.0518559    1.0598533    1.0670961    1.0739899    1.0807940
:EIG00271:       1.0828843    1.0863127    1.0896461    1.0954636    1.0980394
:EIG00276:       1.1007030    1.1048183    1.1091887    1.1139628    1.1209722
:EIG00281:       1.1219548    1.1285767    1.1312156    1.1368953    1.1431768
:EIG00286:       1.1465973    1.1510252    1.1573411    1.1606517    1.1654175
:EIG00291:       1.1672355    1.1683348    1.1747395    1.1787810    1.1802361
:EIG00296:       1.1838970    1.1892971    1.1901432    1.1960694    1.2002724
 
:EIG00301:       1.2120180    1.2172370    1.2205592    1.2238239    1.2273749
:EIG00306:       1.2319927    1.2369307    1.2376727    1.2460272    1.2472400
:EIG00311:       1.2541432    1.2570623    1.2655529    1.2711939    1.2782657
:EIG00316:       1.2806840    1.2845070    1.2929087    1.3053307    1.3103982
:EIG00321:       1.3129151    1.3152584    1.3195435    1.3322506    1.3373731
:EIG00326:       1.3404468    1.3532875    1.3622131    1.3675938    1.3697136
:EIG00331:       1.3769229    1.3844068    1.3861705    1.3893166    1.4016501
:EIG00336:       1.4084847    1.4096925    1.4208066    1.4261419    1.4284783
:EIG00341:       1.4331130    1.4368368    1.4427758    1.4431176    1.4491393
:EIG00346:       1.4555133    1.4640999    1.4656870    1.4701899    1.4723453
 
:EIG00351:       1.4794510    1.4824014    1.4869980    1.4929743    1.5008096
:EIG00356:       1.5011643    1.5035081    1.5119786    1.5167569    1.5191824
:EIG00361:       1.5232762    1.5255726    1.5288615    1.5355034    1.5444208
:EIG00366:       1.5464150    1.5494857    1.5595270    1.5636325    1.5735104
:EIG00371:       1.5789995    1.5832024    1.5853562    1.5951474    1.6089582
:EIG00376:       1.6118009    1.6241332    1.6269413    1.6357694    1.6386581
:EIG00381:       1.6437740    1.6532681    1.6561611    1.6597564    1.6632790
:EIG00386:       1.6725218    1.6760671    1.6781017    1.6800614    1.6847927
:EIG00391:       1.6927963    1.7078384    1.7095663    1.7108575    1.7209668
:EIG00396:       1.7223441    1.7233506    1.7307398    1.7342219    1.7364550
 
:EIG00401:       1.7446007    1.7464966    1.7509810    1.7550054    1.7625927
:EIG00406:       1.7663397    1.7692693    1.7758804    1.7874222    1.7894465
:EIG00411:       1.7937863    1.7954849
       ********************************************************

:KPT   :      NUMBER OF K-POINTS:   144
       Insulator, EF-inconsistency corrected
:GAP (global)   :  0.179168 Ry =     2.438 eV (accurate value if proper k-mesh)
         Bandranges (emin - emax) and occupancy:
:BAN00170: 170   -0.040963   -0.029630  2.00000000
:BAN00171: 171   -0.038052   -0.029333  2.00000000
:BAN00172: 172   -0.038052   -0.028021  2.00000000
:BAN00173: 173   -0.033989   -0.025975  2.00000000
:BAN00174: 174   -0.033047   -0.023843  2.00000000
:BAN00175: 175   -0.027903   -0.018260  2.00000000
:BAN00176: 176   -0.027903   -0.018260  2.00000000
:BAN00177: 177   -0.004995    0.059694  2.00000000
:BAN00178: 178    0.004658    0.061461  2.00000000
:BAN00179: 179    0.033169    0.112462  2.00000000
:BAN00180: 180    0.033169    0.150214  2.00000000
:BAN00181: 181    0.329382    0.432553  0.00000000
:BAN00182: 182    0.333042    0.432553  0.00000000
:BAN00183: 183    0.337007    0.438696  0.00000000
:BAN00184: 184    0.354794    0.438696  0.00000000
:BAN00185: 185    0.371182    0.456180  0.00000000
        Energy to separate low and high energystates:   -0.47230


:NOE  : NUMBER OF ELECTRONS          =  360.000

:FER  : F E R M I - ENERGY(TETRAH.M.)=   0.1502141045
:GMA  : POTENTIAL AND CHARGE CUT-OFF  12.00 Ry**.5

:POS001: ATOM   -1 X,Y,Z = 0.50000 0.50000 0.50000  MULT= 4  ZZ= 82.000  Pb        

       LMMAX 28
       LM=   0 0  2 0  2 1 -2 1  2 2 -2 2  4 0  4 1 -4 1  4 2 -4 2  4 3 -4 3  4 4 -4 4  6 0  6 1
        -6 1  6 2 -6 2  6 3 -6 3  6 4 -6 4  6 5 -6 5  6 6 -6 6

:CHA001: TOTAL VALENCE CHARGE INSIDE SPHERE   1 =  17.3159    (RMT=  2.5000 )
:PCS001: PARTIAL CHARGES SPHERE =  1 S,P,D,F,PX,PY,PZ,D-Z2,D-X2Y2,D-XY,D-XZ,D-YZ 
:QTL001: 1.3321 6.2644 9.7045 0.0125 2.0873 2.0880 2.0892 1.9487 1.9369 1.9474 1.9361 1.9354
        Q-s-low E-s-low   Q-p-low E-p-low   Q-d-low E-d-low   Q-f-low E-f-low
:EPL001:  0.0183 -0.9589    6.0039 -5.6362    9.6295 -0.9142    0.0010 -0.9611
        Q-s-hi  E-s-hi    Q-p-hi  E-p-hi    Q-d-hi  E-d-hi    Q-f-hi  E-f-hi 
:EPH001:  1.3138 -0.2309    0.2605 -0.0972    0.0750 -0.0619    0.0115 -0.0636

                      QXX         QXY         QYY         QZZ       UP TO R
:VZZ001:             0.60401     0.64649     0.13186    -0.73587       2.500

:POS002: ATOM   -2 X,Y,Z = 0.48491 0.94655 0.25000  MULT= 4  ZZ= 55.000  Cs        

       LMMAX 28
       LM=   0 0  1 1 -1 1  2 0  2 2 -2 2  3 1 -3 1  3 3 -3 3  4 0  4 2 -4 2  4 4 -4 4  5 1 -5 1
         5 3 -5 3  5 5 -5 5  6 0  6 2 -6 2  6 4 -6 4  6 6 -6 6

:CHA002: TOTAL VALENCE CHARGE INSIDE SPHERE   2 =  16.2966    (RMT=  2.5000 )
:PCS002: PARTIAL CHARGES SPHERE =  2 S,P,D,F,PX,PY,PZ,D-Z2,D-X2Y2,D-XY,D-XZ,D-YZ 
:QTL002: 1.7961 4.489010.0095 0.0018 1.4956 1.4965 1.4969 2.0014 2.0023 2.0011 2.0020 2.0027
        Q-s-low E-s-low   Q-p-low E-p-low   Q-d-low E-d-low   Q-f-low E-f-low
:EPL002:  1.7866 -1.3798    0.0022 -0.9498    9.9946 -4.8627    0.0001 -1.0504
        Q-s-hi  E-s-hi    Q-p-hi  E-p-hi    Q-d-hi  E-d-hi    Q-f-hi  E-f-hi 
:EPH002:  0.0095 -0.0818    4.4868 -0.4045    0.0149 -0.0566    0.0017 -0.0496

                      QXX         QXY         QYY         QZZ       UP TO R
:VZZ002:             0.55867     1.61966    -0.11701    -0.44167       2.500

:POS003: ATOM   -3 X,Y,Z = 0.56000 0.50750 0.25000  MULT= 4  ZZ= 35.000  Br        

       LMMAX 28
       LM=   0 0  1 1 -1 1  2 0  2 2 -2 2  3 1 -3 1  3 3 -3 3  4 0  4 2 -4 2  4 4 -4 4  5 1 -5 1
         5 3 -5 3  5 5 -5 5  6 0  6 2 -6 2  6 4 -6 4  6 6 -6 6

:CHA003: TOTAL VALENCE CHARGE INSIDE SPHERE   3 =  15.9441    (RMT=  2.5000 )
:PCS003: PARTIAL CHARGES SPHERE =  3 S,P,D,F,PX,PY,PZ,D-Z2,D-X2Y2,D-XY,D-XZ,D-YZ 
:QTL003: 1.7964 4.130610.0140 0.0024 1.3961 1.4001 1.3344 2.0109 2.0004 2.0002 2.0017 2.0010
        Q-s-low E-s-low   Q-p-low E-p-low   Q-d-low E-d-low   Q-f-low E-f-low
:EPL003:  1.7651 -0.9521    0.0061 -0.9194   10.0001 -4.3431    0.0006 -0.9412
        Q-s-hi  E-s-hi    Q-p-hi  E-p-hi    Q-d-hi  E-d-hi    Q-f-hi  E-f-hi 
:EPH003:  0.0314 -0.2501    4.1245 -0.0640    0.0140 -0.1197    0.0018 -0.1689

                      QXX         QXY         QYY         QZZ       UP TO R
:VZZ003:            -5.38515    -0.35104    -6.62533    12.01047       2.500

:POS004: ATOM   -4 X,Y,Z = 0.19962 0.70227 0.46752  MULT= 8  ZZ= 35.000  Br        

       LMMAX 49

:CHA004: TOTAL VALENCE CHARGE INSIDE SPHERE   4 =  15.9448    (RMT=  2.5000 )
:PCS004: PARTIAL CHARGES SPHERE =  4 S,P,D,F,PX,PY,PZ,D-Z2,D-X2Y2,D-XY,D-XZ,D-YZ 
:QTL004: 1.7962 4.132010.0136 0.0024 1.3690 1.3658 1.3972 2.0027 2.0019 2.0073 2.0008 2.0009
        Q-s-low E-s-low   Q-p-low E-p-low   Q-d-low E-d-low   Q-f-low E-f-low
:EPL004:  1.7656 -0.9519    0.0059 -0.9184   10.0000 -4.3431    0.0006 -0.9438
        Q-s-hi  E-s-hi    Q-p-hi  E-p-hi    Q-d-hi  E-d-hi    Q-f-hi  E-f-hi 
:EPH004:  0.0306 -0.2505    4.1261 -0.0639    0.0136 -0.1221    0.0018 -0.1635

                      QXX         QXY         QYY         QZZ       UP TO R
:VZZ004:             2.28020    -8.57643     3.25685    -5.53705       2.500

:CHA  : TOTAL VALENCE CHARGE INSIDE UNIT CELL =     360.000000

:SUM  : SUM OF EIGENVALUES =        -938.463955822


        1.ATOM      Pb                   17 CORE STATES
:1S 001: 1S               -6465.880757914 Ry
:2S 001: 2S               -1154.925816769 Ry
:2PP001: 2P*              -1108.916583007 Ry
:2P 001: 2P                -947.957719725 Ry
:3S 001: 3S                -276.714616458 Ry
:3PP001: 3P*               -255.989355370 Ry
:3P 001: 3P                -220.075487553 Ry
:3DD001: 3D*               -186.083891322 Ry
:3D 001: 3D                -178.443556419 Ry
:4S 001: 4S                 -62.148875631 Ry
:4PP001: 4P*                -53.184059939 Ry
:4P 001: 4P                 -44.393303281 Ry
:4DD001: 4D*                -29.812467171 Ry
:4D 001: 4D                 -28.172249615 Ry
:5S 001: 5S                  -9.922744263 Ry
:4FF001: 4F*                 -9.299766482 Ry
:4F 001: 4F                  -8.930020784 Ry

        2.ATOM      Cs                   12 CORE STATES
       CORE-FORCE in mRy/a.u. = |F|      Fx             Fy             Fz
:FCO002:   2.ATOM      8.575640493409     -8.521389094761     -0.963087622118      0.000000000000

:1S 002: 1S               -2628.599589459 Ry
:2S 002: 2S                -411.672685883 Ry
:2PP002: 2P*               -387.235504361 Ry
:2P 002: 2P                -361.343723485 Ry
:3S 002: 3S                 -85.122426832 Ry
:3PP002: 3P*                -74.919027572 Ry
:3P 002: 3P                 -69.957154420 Ry
:3DD002: 3D*                -52.037894883 Ry
:3D 002: 3D                 -50.984563201 Ry
:4S 002: 4S                 -15.587955013 Ry
:4PP002: 4P*                -11.927100639 Ry
:4P 002: 4P                 -10.915154016 Ry

        3.ATOM      Br                    7 CORE STATES
       CORE-FORCE in mRy/a.u. = |F|      Fx             Fy             Fz
:FCO003:   3.ATOM    106.262940903645     40.468211401459     98.255465371949      0.000000000000

:1S 003: 1S                -977.961379026 Ry
:2S 003: 2S                -126.758745547 Ry
:2PP003: 2P*               -114.088788778 Ry
:2P 003: 2P                -110.597407405 Ry
:3S 003: 3S                 -16.932905833 Ry
:3PP003: 3P*                -12.528367337 Ry
:3P 003: 3P                 -12.026167889 Ry

        4.ATOM      Br                    7 CORE STATES
       CORE-FORCE in mRy/a.u. = |F|      Fx             Fy             Fz
:FCO004:   4.ATOM     77.865959997107    -22.106856361963    -47.833895055753    -57.326373615098

:1S 004: 1S                -977.961439721 Ry
:2S 004: 2S                -126.758807703 Ry
:2PP004: 2P*               -114.088850716 Ry
:2P 004: 2P                -110.597469374 Ry
:3S 004: 3S                 -16.932968749 Ry
:3PP004: 3P*                -12.528430148 Ry
:3P 004: 3P                 -12.026230667 Ry
:CINT001 Core Integral Atom   1   61.999872
:CINT002 Core Integral Atom   2   35.999909
:CINT003 Core Integral Atom   3   17.999989
:CINT004 Core Integral Atom   4   17.999989

       DENSITY AT NUCLEUS
        JATOM        VALENCE       SEMI-CORE          CORE           TOTAL
:RTO001:   1     1948.041627        0.000000  9910100.477261  9912048.518888
:RTO002:   2      320.954525        0.000000   438170.993758   438491.948283
:RTO003:   3       73.571755        0.000000    45839.118218    45912.689973
:RTO004:   4       73.557520        0.000000    45839.118205    45912.675724
     
       CHARGES OF NEW CHARGE DENSITY
:NTO   : INTERSTITIAL CHARGE =    34.215903
:NPC   : PW Pseudocharge     =   103.693338
:NTO001: CHARGE SPHERE  1    =    79.315739
:NTO002: CHARGE SPHERE  2    =    52.296473
:NTO003: CHARGE SPHERE  3    =    33.944067
:NTO004: CHARGE SPHERE  4    =    33.944742

:NEC01: NUCLEAR AND ELECTRONIC CHARGE    968.00000   967.99896
     
       CHARGES OF OLD CHARGE DENSITY
:OTO   : INTERSTITIAL CHARGE =    36.554764
:OPC   : PW Pseudocharge     =   113.725938
:OTO001: CHARGE SPHERE  1    =    79.796960
:OTO002: CHARGE SPHERE  2    =    52.317397
:OTO003: CHARGE SPHERE  3    =    33.582715
:OTO004: CHARGE SPHERE  4    =    33.582123

:NEC02: NUCLEAR AND ELECTRONIC CHARGE    968.00000   968.00004
     
       CONVERGENCE TEST
:DTO001: DIFFERENCE IN SPHERE  1 =  0.5684062
:DTO002: DIFFERENCE IN SPHERE  2 =  0.0705920
:DTO003: DIFFERENCE IN SPHERE  3 =  0.1824076
:DTO004: DIFFERENCE IN SPHERE  4 =  0.1830958

:DIS  :  CHARGE DISTANCE       ( 0.5684062 for atom    1 spin 1)      0.2375195
 PW Mixed is         2247
 
******************************************************
* MULTISECANT MIXING VER9 RELEASE 10.4.0              *
* Slow Mode, cautious                                *
* Fixed density scale                                *
* Regularization       1.000E-04                     *
* Step Trust Radius    0.75000                       *
* Trust Upper Limit    2.000E+00                     *
* Max Number of Memory Steps   12                    *
******************************************************
 
:PWTMP   3.9481E+03  2.5000E+03  5.2571E+03
:PLANE:  PW TOTAL      8.9404 DISTAN   1.01E+00  1.13E+01 %
:CHARG:  CLM/ATOM   1115.9634 DISTAN   3.29E-01  2.95E-02 %
 
Step History
        DMIX         DMIXT        Red     Pred      Trust     Lambda    MagRel    MagAbs     Beta
  1   3.5000E-02   3.5000E-02 -1.00E+00  1.00E+00 -1.00E+01  1.00E+00  3.50E-02  3.50E-02  1.00E+00
  2   2.5000E-02   2.5000E-02 -1.00E+00  1.00E+00 -1.00E+01  1.00E+00  2.50E-02  9.25E-02  1.00E+00
:JACOBIANS    4.977E-01   1.436E-04
  
:TRUST:  Step 4.29E-02  Charge 7.50E-02 (e) CTO  4.43E-01 (e) PW  6.21E-01 (e)
:DIRM :  MEMORY  1/12 SCALE   1.000
:MIX  :   PRATT  REGULARIZATION:  1.00E-04 GREED: 0.04293  Expand 1.72  0.0429                
     
       CHARGES OF MIXED CHARGE DENSITY
:CTO   : INTERSTITIAL CHARGE =    36.538026
:CPC   : PW Pseudocharge     =   108.997944
:CTO001: CHARGE SPHERE  1    =    79.793571
:CTO002: CHARGE SPHERE  2    =    52.317240
:CTO003: CHARGE SPHERE  3    =    33.585283
:CTO004: CHARGE SPHERE  4    =    33.584700

:NEC03: NUCLEAR AND ELECTRONIC CHARGE    968.00000   968.00000

PW CHANGE     H    K    L      Current       Change    Residue
:PTO001:      0    0    0  2.76838401E-02 -9.025E-04 -2.352E-03
:PTO006:     -1    0   -1 -2.44260674E-03  7.252E-05  1.244E-04
:PTO007:      0    0   -2  3.12849854E-03 -4.935E-04 -1.347E-03
:PTO008:     -1   -1    0  5.88274103E-03 -1.021E-03 -2.649E-03
:PTO009:     -1   -1   -1 -1.05675043E-02  4.173E-04  6.365E-04
:PTO012:      0   -2    0  7.27949417E-03 -7.979E-04 -1.623E-03
:PTO013:     -1   -1   -2  2.30805225E-02 -3.021E-03 -6.652E-03
:PTO014:     -2    0    0  7.21470867E-03 -8.124E-04 -1.633E-03
:PTO015:      0   -2   -1  5.80565095E-03 -3.002E-04 -6.265E-04
:PTO018:     -1   -2    0 -1.06572224E-02  3.362E-04  3.148E-04
:PTO019:     -2   -1    0  1.17159937E-02 -3.782E-04 -3.621E-04
:PTO021:     -1   -2   -1  1.22183296E-02 -4.012E-04 -3.903E-04

:ENE  : ********** TOTAL ENERGY IN Ry =      -292310.00662728

       TOTAL FORCE IN mRy/a.u. = |F|     Fx             Fy             Fz     with/without FOR in case.in2
:FOR001:   1.ATOM          0.000          0.000          0.000          0.000 partial forces
:FOR002:   2.ATOM          4.207          4.192          0.350          0.000 partial forces
:FOR003:   3.ATOM         99.483        -40.652        -90.798          0.000 partial forces
:FOR004:   4.ATOM         75.929         23.147         46.635         55.268 partial forces
       TOTAL FORCE WITH RESPECT TO GLOBAL CARTESIAN COORDINATES:
:FCA001:   1.ATOM                         0.000          0.000          0.000 partial forces
:FCA002:   2.ATOM                         4.192          0.350          0.000 partial forces
:FCA003:   3.ATOM                       -40.652        -90.798          0.000 partial forces
:FCA004:   4.ATOM                        23.147         46.635         55.268 partial forces
       TOTAL FORCE WITH RESPECT TO THE GLOBAL COORDINATE SYSTEM:
:FGL001:   1.ATOM                 0.000000000     0.000000000     0.000000000 partial forces
:FGL002:   2.ATOM                 4.191903240     0.350298581     0.000000000 partial forces
:FGL003:   3.ATOM               -40.651989347   -90.797749193     0.000000000 partial forces
:FGL004:   4.ATOM                23.146737281    46.635366595    55.267820401 partial forces
 Flat Integration
 New Mode for Coulomb Integral
 Consistent 3/8+Simpson combinations
 Extension of core to zero
 LDM version in phi
 Fifth-order quadrature in outwin


            ---------
:ITE003:  3. ITERATION
            ---------

:NATO :    4 INDEPENDENT AND   20 TOTAL ATOMS IN UNITCELL
       SUBSTANCE: blebleble                                                   

       LATTICE                      = P   
:POT  : POTENTIAL OPTION EX_PBE EC_PBE VX_PBE VC_PBE
:LAT  : LATTICE CONSTANTS= 15.19415 15.66734 22.08372    1.571    1.571    1.571
:VOL  : UNIT CELL VOLUME =    5257.07306
       MODE OF CALCULATION IS       = RELA
       NON-SPINPOLARIZED CALCULATION
:IFFT  : FFT-parameters:  120  120  180 Factor: 2.00


   CONVERGENCE PARAMETER FOR PSEUDOCHARGE: NCON=  9
   MAXIMAL VALUE OF RMT(JATOM)*ABSK(NKK) : RK  =29.99804


:VKCOUL :  VK-COUL convergence: 0.225E-08
       ATOMNUMBER=  1 Pb         VCOUL-ZERO =  0.92532E-01
:EFG001:                        EFG         =     0.03469   *10**21  V / m**2
                               V20  TOT/SRF=    -0.01948     0.00188
                               V22  TOT/SRF=     0.00696    -0.00071
                               V22M TOT/SRF=     0.01976    -0.00082
                               V21  TOT/SRF=    -0.00579     0.00315
                               V21M TOT/SRF=    -0.01227    -0.00510

              0.01821    0.01976   -0.00579        0.03469    0.00000    0.00000
              0.01976    0.00428   -0.01227        0.00000   -0.00733    0.00000
             -0.00579   -0.01227   -0.02250        0.00000    0.00000   -0.02736

         MAIN DIRECTIONS OF THE EFG   1.0000 -0.8809 -0.0564
                                      0.7564  1.0000  0.4230
                                     -0.2636 -0.4727  1.0000
:ANG001:  ANGLE WITH OLD X-AXIS =        41.4

:ETA001:                         ASYMM. ETA =     0.57758


       ATOMNUMBER=  2 Cs         VCOUL-ZERO = -0.59513E-01
:EFG002:                        EFG         =     0.05855   *10**21  V / m**2
                               V20  TOT/SRF=    -0.01227    -0.00045
                               V22  TOT/SRF=     0.01032    -0.00050
                               V22M TOT/SRF=     0.05042    -0.00101
                               V21  TOT/SRF=     0.00000     0.00000
                               V21M TOT/SRF=     0.00000     0.00000

              0.01740    0.05042    0.00000        0.05855    0.00000    0.00000
              0.05042   -0.00323    0.00000        0.00000   -0.04438    0.00000
              0.00000    0.00000   -0.01417        0.00000    0.00000   -0.01417

         MAIN DIRECTIONS OF THE EFG   1.0000 -0.8161  0.0000
                                      0.8161  1.0000  0.0000
                                      0.0000  0.0000  1.0000
:ANG002:  ANGLE WITH OLD X-AXIS =        39.2

:ETA002:                         ASYMM. ETA =     0.51597


       ATOMNUMBER=  3 Br         VCOUL-ZERO =  0.27269E+00
:EFG003:                        EFG         =     0.39343   *10**21  V / m**2
                               V20  TOT/SRF=     0.34072     0.06382
                               V22  TOT/SRF=     0.02357     0.00572
                               V22M TOT/SRF=    -0.02189    -0.01135
                               V21  TOT/SRF=     0.00000     0.00000
                               V21M TOT/SRF=     0.00000     0.00000

             -0.17315   -0.02189    0.00000       -0.16455    0.00000    0.00000
             -0.02189   -0.22028    0.00000        0.00000   -0.22888    0.00000
              0.00000    0.00000    0.39343        0.00000    0.00000    0.39343

         MAIN DIRECTIONS OF THE EFG   1.0000  0.3928  0.0000
                                     -0.3928  1.0000  0.0000
                                      0.0000  0.0000  1.0000
:ANG003:  ANGLE WITH OLD X-AXIS =        21.4

:ETA003:                         ASYMM. ETA =     0.16352


       ATOMNUMBER=  4 Br         VCOUL-ZERO =  0.27275E+00
:EFG004:                        EFG         =     0.37209   *10**21  V / m**2
                               V20  TOT/SRF=    -0.15408    -0.02760
                               V22  TOT/SRF=    -0.01841    -0.00450
                               V22M TOT/SRF=    -0.28124    -0.05252
                               V21  TOT/SRF=    -0.03156    -0.00408
                               V21M TOT/SRF=     0.00694     0.00787

              0.07054   -0.28124   -0.03156        0.37209    0.00000    0.00000
             -0.28124    0.10737    0.00694        0.00000   -0.20555    0.00000
             -0.03156    0.00694   -0.17791        0.00000    0.00000   -0.16654

         MAIN DIRECTIONS OF THE EFG  -0.9396  1.0000 -0.4727
                                      1.0000  0.8783 -0.5107
                                      0.0665  0.9213  1.0000
:ANG004:  ANGLE WITH OLD X-AXIS =       130.3

:ETA004:                         ASYMM. ETA =     0.10485


     HELLMANN-FEYNMAN-FORCE IN mRy/a.u. = |F|  Fx       Fy             Fz
:FHF001:   1.ATOM      0.000000000000      0.000000000000      0.000000000000      0.000000000000

     HELLMANN-FEYNMAN-FORCE IN mRy/a.u. = |F|  Fx       Fy             Fz
:FHF002:   2.ATOM     12.628049370341     12.496744936622      1.816314094201      0.000000000000

     HELLMANN-FEYNMAN-FORCE IN mRy/a.u. = |F|  Fx       Fy             Fz
:FHF003:   3.ATOM    202.105373313577    -77.991473530778   -186.450829922310      0.000000000000

     HELLMANN-FEYNMAN-FORCE IN mRy/a.u. = |F|  Fx       Fy             Fz
:FHF004:   4.ATOM    148.178296487919     42.468810599452     90.922415594685    109.024410196785

:FIT001: LUSE= 13 SIGMA OF V-XC FIT FOR ATOM  1  0.7739430E-03
:FIT001: LUSE= 13 SIGMA OF V-XC FIT FOR ATOM  1  0.7739430E-03
:FIT002: LUSE= 13 SIGMA OF V-XC FIT FOR ATOM  2  0.1723558E-04
:FIT002: LUSE= 13 SIGMA OF V-XC FIT FOR ATOM  2  0.1723558E-04
:FIT003: LUSE= 13 SIGMA OF V-XC FIT FOR ATOM  3  0.7130528E-03
:FIT003: LUSE= 13 SIGMA OF V-XC FIT FOR ATOM  3  0.7130528E-03
:FIT004: LUSE= 13 SIGMA OF V-XC FIT FOR ATOM  4  0.6339124E-03
:FIT004: LUSE= 13 SIGMA OF V-XC FIT FOR ATOM  4  0.6339124E-03
:DEN  : DENSITY INTEGRAL  =       -114050.10332450   (Ry)
       ELS_POTENTIAL_AT Z=0 and Z=0.5:  -0.53750  -0.53750
       ELS_POTENTIAL_AT Y=0 and Y=0.5:  -0.44926  -0.44926
:VZERO:v0,v0c,v0x  -1.25030  -0.53750  -0.71280 v5,v5c,v5x  -1.25030  -0.53750  -0.71280
:VZERY:v0,v0c,v0x  -1.08164  -0.44926  -0.63239 v5,v5c,v5x  -1.08164  -0.44926  -0.63239
:VZERX:v0,v0c,v0x  -1.07404  -0.44816  -0.62589 v5,v5c,v5x  -1.07404  -0.44816  -0.62589
:LMAX-WF:   10   Non-Spherical LMAX:   4

          ATOMIC SPHERE DEPENDENT PARAMETERS FOR ATOM  Pb        
:e__0001: OVERALL ENERGY PARAMETER IS    0.0001
          OVERALL BASIS SET ON ATOM IS LAPW
:E1_0001: E( 1)=    0.0001
             APW+lo
:E1_0001: E( 1)=   -5.6518   E(BOTTOM)=   -5.672   E(TOP)=   -5.632  3  3   118
             LOCAL ORBITAL
:E2_0001: E( 2)=    0.4001
             APW+lo
:E2_0001: E( 2)=   -0.9575   E(BOTTOM)=   -1.195   E(TOP)=   -0.720  2  3   120
             LOCAL ORBITAL
:E0_0001: E( 0)=    0.0001
             APW+lo

          ATOMIC SPHERE DEPENDENT PARAMETERS FOR ATOM  Cs        
:e__0002: OVERALL ENERGY PARAMETER IS    0.0001
          OVERALL BASIS SET ON ATOM IS LAPW
:E2_0002: E( 2)=    0.0001
             APW+lo
:E2_0002: E( 2)=   -4.8678   E(BOTTOM)=   -4.879   E(TOP)=   -4.856  1  2   118
             LOCAL ORBITAL
:E0_0002: E( 0)=    0.4001
             APW+lo
:E0_0002: E( 0)=   -1.3764   E(BOTTOM)=   -2.059   E(TOP)=   -0.694  4  5   164
             LOCAL ORBITAL
:E1_0002: E( 1)=    0.4001
             APW+lo
:E1_0002: E( 1)=   -0.2035   E(BOTTOM)=   -1.176   E(TOP)=    0.769  3  4   198
             LOCAL ORBITAL

          ATOMIC SPHERE DEPENDENT PARAMETERS FOR ATOM  Br        
:e__0003: OVERALL ENERGY PARAMETER IS    0.0001
          OVERALL BASIS SET ON ATOM IS LAPW
:E2_0003: E( 2)=    0.0001
             APW+lo
:E2_0003: E( 2)=   -4.3449   E(BOTTOM)=   -4.348   E(TOP)=   -4.342  1  1   117
             LOCAL ORBITAL
:E0_0003: E( 0)=    0.4001
             APW+lo
:E0_0003: E( 0)=   -0.9520   E(BOTTOM)=   -1.518   E(TOP)=   -0.386  3  4   159
             LOCAL ORBITAL
:E1_0003: E( 1)=    0.0001
             APW+lo

          ATOMIC SPHERE DEPENDENT PARAMETERS FOR ATOM  Br        
:e__0004: OVERALL ENERGY PARAMETER IS    0.0001
          OVERALL BASIS SET ON ATOM IS LAPW
:E2_0004: E( 2)=    0.0001
             APW+lo
:E2_0004: E( 2)=   -4.3449   E(BOTTOM)=   -4.348   E(TOP)=   -4.342  1  1   118
             LOCAL ORBITAL
:E0_0004: E( 0)=    0.4001
             APW+lo
:E0_0004: E( 0)=   -0.9520   E(BOTTOM)=   -1.518   E(TOP)=   -0.386  3  4   157
             LOCAL ORBITAL
:E1_0004: E( 1)=    0.0001
             APW+lo

       K=   0.04545   0.04545   0.07143            1
:RKM  : MATRIX SIZE  2251LOs: 320  RKM= 7.00  WEIGHT= 8.00  PGR:    
       EIGENVALUES ARE:
:EIG00001:      -5.6480976   -5.6480946   -5.6480890   -5.6480858   -5.6477918
:EIG00006:      -5.6477824   -5.6477788   -5.6477762   -5.6476057   -5.6476043
:EIG00011:      -5.6475965   -5.6475886   -4.8650199   -4.8650148   -4.8650006
:EIG00016:      -4.8649985   -4.8649972   -4.8649917   -4.8649885   -4.8649798
:EIG00021:      -4.8649762   -4.8649737   -4.8649710   -4.8649696   -4.8649618
:EIG00026:      -4.8649480   -4.8649404   -4.8649306   -4.8649256   -4.8649134
:EIG00031:      -4.8649088   -4.8648929   -4.3447392   -4.3447340   -4.3447319
:EIG00036:      -4.3447257   -4.3447136   -4.3447079   -4.3447040   -4.3447007
:EIG00041:      -4.3446978   -4.3446961   -4.3446918   -4.3446861   -4.3444454
:EIG00046:      -4.3444325   -4.3444297   -4.3444282   -4.3443797   -4.3443721
 
:EIG00051:      -4.3443699   -4.3443644   -4.3443635   -4.3443611   -4.3443550
:EIG00056:      -4.3443437   -4.3443198   -4.3443140   -4.3443020   -4.3442954
:EIG00061:      -4.3442886   -4.3442867   -4.3442796   -4.3442761   -4.3441529
:EIG00066:      -4.3441473   -4.3441427   -4.3441376   -4.3437109   -4.3437106
:EIG00071:      -4.3437019   -4.3437016   -4.3436947   -4.3436915   -4.3436880
:EIG00076:      -4.3436827   -4.3436719   -4.3436619   -4.3436559   -4.3436538
:EIG00081:      -4.3436506   -4.3436495   -4.3436482   -4.3436405   -4.3436395
:EIG00086:      -4.3436389   -4.3436375   -4.3436337   -4.3435832   -4.3435821
:EIG00091:      -4.3435777   -4.3435711   -1.3824908   -1.3823292   -1.3821473
:EIG00096:      -1.3820445   -0.9781646   -0.9779096   -0.9778130   -0.9766023
 
:EIG00101:      -0.9750685   -0.9718152   -0.9538434   -0.9536330   -0.9535105
:EIG00106:      -0.9531407   -0.9526469   -0.9521978   -0.9237734   -0.9235497
:EIG00111:      -0.9229720   -0.9173105   -0.9171763   -0.9171118   -0.9170388
:EIG00116:      -0.9169625   -0.9169036   -0.9165212   -0.9164984   -0.9163400
:EIG00121:      -0.9162968   -0.9161491   -0.9159959   -0.9112158   -0.8980276
:EIG00126:      -0.8856513   -0.8854057   -0.8848715   -0.4242942   -0.4232530
:EIG00131:      -0.4219249   -0.4213761   -0.4197454   -0.4193146   -0.4191035
:EIG00136:      -0.4175806   -0.4175439   -0.4173059   -0.4169127   -0.4161049
:EIG00141:      -0.4151519   -0.3805539   -0.3404554   -0.2802647   -0.1564781
:EIG00146:      -0.1557215   -0.1527796   -0.1485407   -0.1466883   -0.1380213
 
:EIG00151:      -0.1047477   -0.0871544   -0.0840795   -0.0826175   -0.0812639
:EIG00156:      -0.0741187   -0.0652910   -0.0593909   -0.0571896   -0.0545700
:EIG00161:      -0.0519464   -0.0495417   -0.0482160   -0.0461808   -0.0457484
:EIG00166:      -0.0445017   -0.0379381   -0.0337445   -0.0333908   -0.0330079
:EIG00171:      -0.0305931   -0.0291443   -0.0279039   -0.0253303   -0.0238446
:EIG00176:      -0.0234761   -0.0061715    0.0470951    0.0950885    0.1480915
:EIG00181:       0.3267461    0.3303877    0.3344071    0.3590870    0.3722811
:EIG00186:       0.3900807    0.3956300    0.4749950    0.4808430    0.4876610
:EIG00191:       0.4927678    0.5201368    0.5229371    0.5275316    0.5348472
:EIG00196:       0.5392499    0.5398025    0.5434950    0.5489786    0.5503477
 
:EIG00201:       0.5642376    0.5684696    0.5697790    0.5769948    0.5897367
:EIG00206:       0.5930309    0.5973739    0.6030539    0.6045111    0.6096940
:EIG00211:       0.6123850    0.6221360    0.6275618    0.6317360    0.6404551
:EIG00216:       0.6486528    0.6508233    0.6675864    0.6739845    0.6829334
:EIG00221:       0.6898153    0.6946901    0.7077991    0.7244153    0.7347007
:EIG00226:       0.7422507    0.7494941    0.7520713    0.7546543    0.7599710
:EIG00231:       0.7693898    0.7791540    0.7804059    0.7848398    0.7876723
:EIG00236:       0.8252860    0.8444409    0.8498542    0.8523768    0.8574407
:EIG00241:       0.8586721    0.8615789    0.8650843    0.8751740    0.8891539
:EIG00246:       0.8913280    0.9023474    0.9178608    0.9300165    0.9374827
 
:EIG00251:       0.9455036    0.9501070    0.9520573    0.9614307    0.9729009
:EIG00256:       0.9774669    0.9886928    0.9905550    1.0013748    1.0063454
:EIG00261:       1.0078877    1.0114468    1.0186694    1.0203776    1.0345681
:EIG00266:       1.0505331    1.0586942    1.0658618    1.0733119    1.0797845
:EIG00271:       1.0820567    1.0856487    1.0888544    1.0949880    1.0976511
:EIG00276:       1.1002049    1.1043647    1.1086009    1.1134316    1.1202589
:EIG00281:       1.1211846    1.1280603    1.1305754    1.1363080    1.1428286
:EIG00286:       1.1463424    1.1501832    1.1567452    1.1599266    1.1647263
:EIG00291:       1.1667766    1.1675260    1.1742907    1.1781893    1.1800502
:EIG00296:       1.1838167    1.1887722    1.1894162    1.1955525    1.1999493
 
:EIG00301:       1.2124449    1.2170799    1.2206781    1.2244195    1.2276440
:EIG00306:       1.2322619    1.2366165    1.2380208    1.2463407    1.2475185
:EIG00311:       1.2551755    1.2565802    1.2653972    1.2710031    1.2784730
:EIG00316:       1.2808900    1.2843856    1.2932657    1.3049370    1.3101306
:EIG00321:       1.3128582    1.3175031    1.3194498    1.3355755    1.3375973
:EIG00326:       1.3419061    1.3528382    1.3643505    1.3684741    1.3705642
:EIG00331:       1.3773104    1.3855351    1.3865980    1.3936792    1.4032630
:EIG00336:       1.4102455    1.4120163    1.4240576    1.4268320    1.4330948
:EIG00341:       1.4353520    1.4392898    1.4443015    1.4452190    1.4497813
:EIG00346:       1.4580867    1.4651279    1.4680606    1.4716543    1.4742735
 
:EIG00351:       1.4822898    1.4857672    1.4888532    1.4962036    1.5032058
:EIG00356:       1.5034345    1.5069322    1.5154840    1.5194936    1.5216467
:EIG00361:       1.5257999    1.5275534    1.5318788    1.5397041    1.5478443
:EIG00366:       1.5491806    1.5509692    1.5592400    1.5665268    1.5739711
:EIG00371:       1.5800751    1.5847938    1.5856810    1.5965352    1.6102111
:EIG00376:       1.6135055    1.6259109    1.6294755    1.6370637    1.6411738
:EIG00381:       1.6458066    1.6544851    1.6575376    1.6621906    1.6643767
:EIG00386:       1.6734962    1.6771199    1.6801032    1.6822350    1.6855034
:EIG00391:       1.6932155
       ********************************************************

:KPT   :      NUMBER OF K-POINTS:   144
       Insulator, EF-inconsistency corrected
:GAP (global)   :  0.178655 Ry =     2.431 eV (accurate value if proper k-mesh)
         Bandranges (emin - emax) and occupancy:
:BAN00170: 170   -0.042068   -0.030740  2.00000000
:BAN00171: 171   -0.039190   -0.030428  2.00000000
:BAN00172: 172   -0.039190   -0.029144  2.00000000
:BAN00173: 173   -0.035151   -0.027074  2.00000000
:BAN00174: 174   -0.034220   -0.024926  2.00000000
:BAN00175: 175   -0.029025   -0.019328  2.00000000
:BAN00176: 176   -0.029025   -0.019328  2.00000000
:BAN00177: 177   -0.006171    0.057767  2.00000000
:BAN00178: 178    0.003191    0.059534  2.00000000
:BAN00179: 179    0.031186    0.110384  2.00000000
:BAN00180: 180    0.031186    0.148091  2.00000000
:BAN00181: 181    0.326746    0.430316  0.00000000
:BAN00182: 182    0.330388    0.430316  0.00000000
:BAN00183: 183    0.334407    0.436389  0.00000000
:BAN00184: 184    0.352173    0.436389  0.00000000
:BAN00185: 185    0.368510    0.453801  0.00000000
        Energy to separate low and high energystates:   -0.47429


:NOE  : NUMBER OF ELECTRONS          =  360.000

:FER  : F E R M I - ENERGY(TETRAH.M.)=   0.1480914859
:GMA  : POTENTIAL AND CHARGE CUT-OFF  12.00 Ry**.5

:POS001: ATOM   -1 X,Y,Z = 0.50000 0.50000 0.50000  MULT= 4  ZZ= 82.000  Pb        

       LMMAX 28
       LM=   0 0  2 0  2 1 -2 1  2 2 -2 2  4 0  4 1 -4 1  4 2 -4 2  4 3 -4 3  4 4 -4 4  6 0  6 1
        -6 1  6 2 -6 2  6 3 -6 3  6 4 -6 4  6 5 -6 5  6 6 -6 6

:CHA001: TOTAL VALENCE CHARGE INSIDE SPHERE   1 =  17.3187    (RMT=  2.5000 )
:PCS001: PARTIAL CHARGES SPHERE =  1 S,P,D,F,PX,PY,PZ,D-Z2,D-X2Y2,D-XY,D-XZ,D-YZ 
:QTL001: 1.3327 6.2662 9.7050 0.0126 2.0879 2.0885 2.0897 1.9488 1.9370 1.9475 1.9362 1.9355
        Q-s-low E-s-low   Q-p-low E-p-low   Q-d-low E-d-low   Q-f-low E-f-low
:EPL001:  0.0185 -0.9600    6.0040 -5.6409    9.6302 -0.9186    0.0010 -0.9620
        Q-s-hi  E-s-hi    Q-p-hi  E-p-hi    Q-d-hi  E-d-hi    Q-f-hi  E-f-hi 
:EPH001:  1.3142 -0.2345    0.2622 -0.0988    0.0748 -0.0632    0.0115 -0.0649

                      QXX         QXY         QYY         QZZ       UP TO R
:VZZ001:             0.60405     0.65070     0.12775    -0.73180       2.500

:POS002: ATOM   -2 X,Y,Z = 0.48491 0.94655 0.25000  MULT= 4  ZZ= 55.000  Cs        

       LMMAX 28
       LM=   0 0  1 1 -1 1  2 0  2 2 -2 2  3 1 -3 1  3 3 -3 3  4 0  4 2 -4 2  4 4 -4 4  5 1 -5 1
         5 3 -5 3  5 5 -5 5  6 0  6 2 -6 2  6 4 -6 4  6 6 -6 6

:CHA002: TOTAL VALENCE CHARGE INSIDE SPHERE   2 =  16.2972    (RMT=  2.5000 )
:PCS002: PARTIAL CHARGES SPHERE =  2 S,P,D,F,PX,PY,PZ,D-Z2,D-X2Y2,D-XY,D-XZ,D-YZ 
:QTL002: 1.7962 4.489410.0095 0.0018 1.4957 1.4966 1.4971 2.0014 2.0023 2.0011 2.0020 2.0027
        Q-s-low E-s-low   Q-p-low E-p-low   Q-d-low E-d-low   Q-f-low E-f-low
:EPL002:  1.7867 -1.3819    0.0022 -0.9509    9.9946 -4.8649    0.0001 -1.0533
        Q-s-hi  E-s-hi    Q-p-hi  E-p-hi    Q-d-hi  E-d-hi    Q-f-hi  E-f-hi 
:EPH002:  0.0095 -0.0829    4.4872 -0.4065    0.0149 -0.0577    0.0017 -0.0507

                      QXX         QXY         QYY         QZZ       UP TO R
:VZZ002:             0.56066     1.62511    -0.11548    -0.44519       2.500

:POS003: ATOM   -3 X,Y,Z = 0.56000 0.50750 0.25000  MULT= 4  ZZ= 35.000  Br        

       LMMAX 28
       LM=   0 0  1 1 -1 1  2 0  2 2 -2 2  3 1 -3 1  3 3 -3 3  4 0  4 2 -4 2  4 4 -4 4  5 1 -5 1
         5 3 -5 3  5 5 -5 5  6 0  6 2 -6 2  6 4 -6 4  6 6 -6 6

:CHA003: TOTAL VALENCE CHARGE INSIDE SPHERE   3 =  15.9413    (RMT=  2.5000 )
:PCS003: PARTIAL CHARGES SPHERE =  3 S,P,D,F,PX,PY,PZ,D-Z2,D-X2Y2,D-XY,D-XZ,D-YZ 
:QTL003: 1.7963 4.128110.0140 0.0024 1.3955 1.3995 1.3330 2.0109 2.0004 2.0002 2.0017 2.0010
        Q-s-low E-s-low   Q-p-low E-p-low   Q-d-low E-d-low   Q-f-low E-f-low
:EPL003:  1.7648 -0.9531    0.0061 -0.9235   10.0001 -4.3435    0.0006 -0.9455
        Q-s-hi  E-s-hi    Q-p-hi  E-p-hi    Q-d-hi  E-d-hi    Q-f-hi  E-f-hi 
:EPH003:  0.0315 -0.2531    4.1220 -0.0652    0.0140 -0.1222    0.0018 -0.1716

                      QXX         QXY         QYY         QZZ       UP TO R
:VZZ003:            -5.43898    -0.34449    -6.67791    12.11689       2.500

:POS004: ATOM   -4 X,Y,Z = 0.19962 0.70227 0.46752  MULT= 8  ZZ= 35.000  Br        

       LMMAX 49

:CHA004: TOTAL VALENCE CHARGE INSIDE SPHERE   4 =  15.9420    (RMT=  2.5000 )
:PCS004: PARTIAL CHARGES SPHERE =  4 S,P,D,F,PX,PY,PZ,D-Z2,D-X2Y2,D-XY,D-XZ,D-YZ 
:QTL004: 1.7961 4.129410.0136 0.0024 1.3680 1.3648 1.3966 2.0027 2.0019 2.0073 2.0008 2.0009
        Q-s-low E-s-low   Q-p-low E-p-low   Q-d-low E-d-low   Q-f-low E-f-low
:EPL004:  1.7653 -0.9529    0.0059 -0.9226   10.0000 -4.3436    0.0006 -0.9481
        Q-s-hi  E-s-hi    Q-p-hi  E-p-hi    Q-d-hi  E-d-hi    Q-f-hi  E-f-hi 
:EPH004:  0.0308 -0.2536    4.1236 -0.0651    0.0136 -0.1247    0.0018 -0.1662

                      QXX         QXY         QYY         QZZ       UP TO R
:VZZ004:             2.30592    -8.65273     3.28651    -5.59243       2.500

:CHA  : TOTAL VALENCE CHARGE INSIDE UNIT CELL =     360.000000

:SUM  : SUM OF EIGENVALUES =        -939.104118518


        1.ATOM      Pb                   17 CORE STATES
:1S 001: 1S               -6465.887268823 Ry
:2S 001: 2S               -1154.931852161 Ry
:2PP001: 2P*              -1108.922687215 Ry
:2P 001: 2P                -947.963764733 Ry
:3S 001: 3S                -276.720314876 Ry
:3PP001: 3P*               -255.995077452 Ry
:3P 001: 3P                -220.081172635 Ry
:3DD001: 3D*               -186.089615859 Ry
:3D 001: 3D                -178.449268947 Ry
:4S 001: 4S                 -62.154254278 Ry
:4PP001: 4P*                -53.189437667 Ry
:4P 001: 4P                 -44.398636780 Ry
:4DD001: 4D*                -29.817790825 Ry
:4D 001: 4D                 -28.177558622 Ry
:5S 001: 5S                  -9.927529579 Ry
:4FF001: 4F*                 -9.305045387 Ry
:4F 001: 4F                  -8.935291578 Ry

        2.ATOM      Cs                   12 CORE STATES
       CORE-FORCE in mRy/a.u. = |F|      Fx             Fy             Fz
:FCO002:   2.ATOM      8.480664217926     -8.382260783558     -1.288165258666      0.000000000000

:1S 002: 1S               -2628.602183245 Ry
:2S 002: 2S                -411.675176624 Ry
[...]
:EIG00146:      -0.1611975   -0.1584600   -0.1541482   -0.1520887   -0.1470180
 
:EIG00151:      -0.0758847   -0.0610813   -0.0559106   -0.0545907   -0.0534437
:EIG00156:      -0.0478981   -0.0391770   -0.0288517   -0.0272173   -0.0259327
:EIG00161:      -0.0242909   -0.0220100   -0.0210828   -0.0179589   -0.0154444
:EIG00166:      -0.0138639   -0.0132639   -0.0124648   -0.0117708   -0.0051660
:EIG00171:       0.0005013    0.0019802    0.0037234    0.0078734    0.0112841
:EIG00176:       0.0135956    0.0252944    0.0414875    0.0791451    0.1245844
:EIG00181:       0.2692117    0.2715565    0.2795200    0.3002900    0.3133459
:EIG00186:       0.3299223    0.4085578    0.4849052    0.4881239    0.4922837
:EIG00191:       0.4969996    0.5027865    0.5037137    0.5075116    0.5208628
:EIG00196:       0.5275538    0.5353741    0.5399806    0.5442910    0.5448446
 
:EIG00201:       0.5513848    0.5528476    0.5564415    0.5577902    0.5662345
:EIG00206:       0.5781767    0.5844420    0.5871111    0.6072497    0.6101531
:EIG00211:       0.6145271    0.6222193    0.6250459    0.6295691    0.6356924
:EIG00216:       0.6474004    0.6493603    0.6690523    0.6754479    0.6783297
:EIG00221:       0.6901684    0.6992443    0.7110684    0.7204949    0.7352801
:EIG00226:       0.7373430    0.7481121    0.7502534    0.7565580    0.7673421
:EIG00231:       0.7731137    0.7860804    0.7870390    0.7934929    0.7945339
:EIG00236:       0.8187228    0.8390131    0.8437486    0.8495523    0.8530938
:EIG00241:       0.8578105    0.8596179    0.8655764    0.8733532    0.8767690
:EIG00246:       0.8888683    0.9059045    0.9175931    0.9240832    0.9324929
 
:EIG00251:       0.9429448    0.9469685    0.9525637    0.9555844    0.9618666
:EIG00256:       0.9761837    0.9820337    0.9837469    0.9871620    1.0021225
:EIG00261:       1.0094200    1.0109242    1.0137964    1.0151405    1.0317371
:EIG00266:       1.0460079    1.0536015    1.0568505    1.0686055    1.0757815
:EIG00271:       1.0774884    1.0814627    1.0837108    1.0928873    1.0974165
:EIG00276:       1.0989282    1.1038733    1.1090328    1.1127083    1.1166065
:EIG00281:       1.1197391    1.1263717    1.1288318    1.1324249    1.1429930
:EIG00286:       1.1445253    1.1488798    1.1541714    1.1580138    1.1602407
:EIG00291:       1.1626244    1.1660776    1.1712458    1.1764951    1.1772122
:EIG00296:       1.1792849    1.1820985    1.1872840    1.1917842    1.1982496
 
:EIG00301:       1.2095726    1.2143626    1.2172931    1.2195706    1.2238615
:EIG00306:       1.2306487    1.2345262    1.2394944    1.2435244    1.2444476
:EIG00311:       1.2524981    1.2569483    1.2635338    1.2662185    1.2716296
:EIG00316:       1.2773151    1.2805469    1.2873149    1.2976807    1.3018412
:EIG00321:       1.3039536    1.3071413    1.3151592    1.3293374    1.3308795
:EIG00326:       1.3333382    1.3440540    1.3526582    1.3621288    1.3657398
:EIG00331:       1.3703163    1.3807100    1.3844064    1.3887095    1.3928762
:EIG00336:       1.4001163    1.4020124    1.4140609    1.4186309    1.4214913
:EIG00341:       1.4287305    1.4302764    1.4354218    1.4402155    1.4442354
:EIG00346:       1.4459189    1.4556166    1.4622781    1.4688480    1.4756867
 
:EIG00351:       1.4787576    1.4824786    1.4854329    1.4863292    1.4874658
:EIG00356:       1.5007725    1.5028433    1.5098900    1.5161714    1.5226856
:EIG00361:       1.5249709    1.5263895    1.5301438    1.5366502    1.5432278
:EIG00366:       1.5440226    1.5507893    1.5584534    1.5619166    1.5667035
:EIG00371:       1.5765490    1.5784620    1.5843769    1.5886436    1.6084206
:EIG00376:       1.6131042    1.6187559    1.6235624
       ********************************************************

:KPT   :      NUMBER OF K-POINTS:   144
       Insulator, EF-inconsistency corrected
:GAP (global)   :  0.144627 Ry =     1.968 eV (accurate value if proper k-mesh)
         Bandranges (emin - emax) and occupancy:
:BAN00170: 170   -0.011141    0.001739  2.00000000
:BAN00171: 171   -0.009568    0.002451  2.00000000
:BAN00172: 172   -0.009568    0.002451  2.00000000
:BAN00173: 173   -0.007822    0.006346  2.00000000
:BAN00174: 174   -0.007822    0.007873  2.00000000
:BAN00175: 175    0.004125    0.014117  2.00000000
:BAN00176: 176    0.004125    0.014117  2.00000000
:BAN00177: 177    0.017915    0.046238  2.00000000
:BAN00178: 178    0.019408    0.048897  2.00000000
:BAN00179: 179    0.023766    0.089401  2.00000000
:BAN00180: 180    0.023766    0.124584  2.00000000
:BAN00181: 181    0.269212    0.390264  0.00000000
:BAN00182: 182    0.271556    0.390264  0.00000000
:BAN00183: 183    0.279520    0.396760  0.00000000
:BAN00184: 184    0.296103    0.396760  0.00000000
:BAN00185: 185    0.309971    0.409691  0.00000000
        Energy to separate low and high energystates:   -0.21218


:NOE  : NUMBER OF ELECTRONS          =  360.000

:FER  : F E R M I - ENERGY(TETRAH.M.)=   0.1245844483
:GMA  : POTENTIAL AND CHARGE CUT-OFF  12.00 Ry**.5

:POS001: ATOM   -1 X,Y,Z = 0.50000 0.50000 0.50000  MULT= 4  ZZ= 82.000  Pb        

       LMMAX 28
       LM=   0 0  2 0  2 1 -2 1  2 2 -2 2  4 0  4 1 -4 1  4 2 -4 2  4 3 -4 3  4 4 -4 4  6 0  6 1
        -6 1  6 2 -6 2  6 3 -6 3  6 4 -6 4  6 5 -6 5  6 6 -6 6

:CHA001: TOTAL VALENCE CHARGE INSIDE SPHERE   1 =  17.5179    (RMT=  2.5000 )
:PCS001: PARTIAL CHARGES SPHERE =  1 S,P,D,F,PX,PY,PZ,D-Z2,D-X2Y2,D-XY,D-XZ,D-YZ 
:QTL001: 1.3768 6.3866 9.7374 0.0147 2.1284 2.1290 2.1292 1.9557 1.9432 1.9545 1.9424 1.9417
        Q-s-low E-s-low   Q-p-low E-p-low   Q-d-low E-d-low   Q-f-low E-f-low
:EPL001:  1.0863 -0.4636    6.0114 -5.8084    9.6702 -1.0811    0.0015 -0.8523
        Q-s-hi  E-s-hi    Q-p-hi  E-p-hi    Q-d-hi  E-d-hi    Q-f-hi  E-f-hi 
:EPH001:  0.2905  0.0282    0.3752 -0.0987    0.0672 -0.0364    0.0132 -0.0392

                      QXX         QXY         QYY         QZZ       UP TO R
:VZZ001:             0.40730     0.78746    -0.21575    -0.19155       2.500

:POS002: ATOM   -2 X,Y,Z = 0.48491 0.94655 0.25000  MULT= 4  ZZ= 55.000  Cs        

       LMMAX 28
       LM=   0 0  1 1 -1 1  2 0  2 2 -2 2  3 1 -3 1  3 3 -3 3  4 0  4 2 -4 2  4 4 -4 4  5 1 -5 1
         5 3 -5 3  5 5 -5 5  6 0  6 2 -6 2  6 4 -6 4  6 6 -6 6

:CHA002: TOTAL VALENCE CHARGE INSIDE SPHERE   2 =  16.3234    (RMT=  2.5000 )
:PCS002: PARTIAL CHARGES SPHERE =  2 S,P,D,F,PX,PY,PZ,D-Z2,D-X2Y2,D-XY,D-XZ,D-YZ 
:QTL002: 1.7981 4.510710.0124 0.0020 1.5026 1.5037 1.5044 2.0019 2.0029 2.0016 2.0025 2.0034
        Q-s-low E-s-low   Q-p-low E-p-low   Q-d-low E-d-low   Q-f-low E-f-low
:EPL002:  1.7880 -1.3987    4.3815 -0.4328    9.9947 -4.8854    0.0001 -0.9380
        Q-s-hi  E-s-hi    Q-p-hi  E-p-hi    Q-d-hi  E-d-hi    Q-f-hi  E-f-hi 
:EPH002:  0.0101 -0.0518    0.1291 -0.0391    0.0177 -0.0255    0.0019 -0.0170

                      QXX         QXY         QYY         QZZ       UP TO R
:VZZ002:             0.78432     2.19352    -0.08095    -0.70337       2.500

:POS003: ATOM   -3 X,Y,Z = 0.56000 0.50750 0.25000  MULT= 4  ZZ= 35.000  Br        

       LMMAX 28
       LM=   0 0  1 1 -1 1  2 0  2 2 -2 2  3 1 -3 1  3 3 -3 3  4 0  4 2 -4 2  4 4 -4 4  5 1 -5 1
         5 3 -5 3  5 5 -5 5  6 0  6 2 -6 2  6 4 -6 4  6 6 -6 6

:CHA003: TOTAL VALENCE CHARGE INSIDE SPHERE   3 =  15.7602    (RMT=  2.5000 )
:PCS003: PARTIAL CHARGES SPHERE =  3 S,P,D,F,PX,PY,PZ,D-Z2,D-X2Y2,D-XY,D-XZ,D-YZ 
:QTL003: 1.7829 3.959810.0141 0.0029 1.3527 1.3593 1.2478 2.0105 2.0003 2.0002 2.0019 2.0012
        Q-s-low E-s-low   Q-p-low E-p-low   Q-d-low E-d-low   Q-f-low E-f-low
:EPL003:  1.7707 -0.9051    0.0873 -0.4819   10.0046 -4.2851    0.0014 -0.6893
        Q-s-hi  E-s-hi    Q-p-hi  E-p-hi    Q-d-hi  E-d-hi    Q-f-hi  E-f-hi 
:EPH003:  0.0122 -0.0529    3.8725 -0.0338    0.0095 -0.0256    0.0015 -0.0667

                      QXX         QXY         QYY         QZZ       UP TO R
:VZZ003:            -9.08768    -0.27016   -11.01059    20.09827       2.500

:POS004: ATOM   -4 X,Y,Z = 0.19962 0.70227 0.46752  MULT= 8  ZZ= 35.000  Br        

       LMMAX 49

:CHA004: TOTAL VALENCE CHARGE INSIDE SPHERE   4 =  15.7592    (RMT=  2.5000 )
:PCS004: PARTIAL CHARGES SPHERE =  4 S,P,D,F,PX,PY,PZ,D-Z2,D-X2Y2,D-XY,D-XZ,D-YZ 
:QTL004: 1.7828 3.959310.0137 0.0028 1.3052 1.2999 1.3542 2.0026 2.0021 2.0071 2.0009 2.0010
        Q-s-low E-s-low   Q-p-low E-p-low   Q-d-low E-d-low   Q-f-low E-f-low
:EPL004:  1.7708 -0.9040    0.0848 -0.4812   10.0044 -4.2842    0.0014 -0.6917
        Q-s-hi  E-s-hi    Q-p-hi  E-p-hi    Q-d-hi  E-d-hi    Q-f-hi  E-f-hi 
:EPH004:  0.0120 -0.0546    3.8745 -0.0329    0.0092 -0.0281    0.0015 -0.0626

                      QXX         QXY         QYY         QZZ       UP TO R
:VZZ004:             3.97590   -14.32834     5.54273    -9.51863       2.500

:CHA  : TOTAL VALENCE CHARGE INSIDE UNIT CELL =     360.000000

:SUM  : SUM OF EIGENVALUES =        -942.602005619


        1.ATOM      Pb                   17 CORE STATES
:1S 001: 1S               -6466.174358742 Ry
:2S 001: 2S               -1155.164656250 Ry
:2PP001: 2P*              -1109.162201700 Ry
:2P 001: 2P                -948.197154006 Ry
:3S 001: 3S                -276.929287130 Ry
:3PP001: 3P*               -256.205463619 Ry
:3P 001: 3P                -220.289513860 Ry
:3DD001: 3D*               -186.298862299 Ry
:3D 001: 3D                -178.657838883 Ry
:4S 001: 4S                 -62.354889968 Ry
:4PP001: 4P*                -53.390013280 Ry
:4P 001: 4P                 -44.598233599 Ry
:4DD001: 4D*                -30.016456721 Ry
:4D 001: 4D                 -28.375810450 Ry
:5S 001: 5S                 -10.105279308 Ry
:4FF001: 4F*                 -9.500916117 Ry
:4F 001: 4F                  -9.130930890 Ry

        2.ATOM      Cs                   12 CORE STATES
       CORE-FORCE in mRy/a.u. = |F|      Fx             Fy             Fz
:FCO002:   2.ATOM      6.439961572239     -6.238557515406      1.597969079452      0.000000000000

:1S 002: 1S               -2628.651693280 Ry
:2S 002: 2S                -411.714715521 Ry
:2PP002: 2P*               -387.279456137 Ry
:2P 002: 2P                -361.387035243 Ry
:3S 002: 3S                 -85.153044354 Ry
:3PP002: 3P*                -74.950121028 Ry
:3P 002: 3P                 -69.987818311 Ry
:3DD002: 3D*                -52.069567166 Ry
:3D 002: 3D                 -51.016070202 Ry
:4S 002: 4S                 -15.611746334 Ry
:4PP002: 4P*                -11.950727072 Ry
:4P 002: 4P                 -10.938559494 Ry

        3.ATOM      Br                    7 CORE STATES
       CORE-FORCE in mRy/a.u. = |F|      Fx             Fy             Fz
:FCO003:   3.ATOM     81.861253511237    -70.268752970162     41.994847094012      0.000000000000

:1S 003: 1S                -977.914443270 Ry
:2S 003: 2S                -126.708823536 Ry
:2PP003: 2P*               -114.039505016 Ry
:2P 003: 2P                -110.548031446 Ry
:3S 003: 3S                 -16.876808766 Ry
:3PP003: 3P*                -12.472240544 Ry
:3P 003: 3P                 -11.969943332 Ry

        4.ATOM      Br                    7 CORE STATES
       CORE-FORCE in mRy/a.u. = |F|      Fx             Fy             Fz
:FCO004:   4.ATOM    111.749515460339     76.269422376911     62.559673091529     52.509206036599

:1S 004: 1S                -977.913453355 Ry
:2S 004: 2S                -126.707822579 Ry
:2PP004: 2P*               -114.038505495 Ry
:2P 004: 2P                -110.547031700 Ry
:3S 004: 3S                 -16.875793466 Ry
:3PP004: 3P*                -12.471224828 Ry
:3P 004: 3P                 -11.968927140 Ry
:CINT001 Core Integral Atom   1   61.999876
:CINT002 Core Integral Atom   2   35.999909
:CINT003 Core Integral Atom   3   17.999988
:CINT004 Core Integral Atom   4   17.999988

       DENSITY AT NUCLEUS
        JATOM        VALENCE       SEMI-CORE          CORE           TOTAL
:RTO001:   1     2059.080954        0.000000  9910224.466413  9912283.547368
:RTO002:   2      321.524139        0.000000   438173.470297   438494.994436
:RTO003:   3       72.168324        0.000000    45839.372014    45911.540338
:RTO004:   4       72.160437        0.000000    45839.372823    45911.533260
     
       CHARGES OF NEW CHARGE DENSITY
:NTO   : INTERSTITIAL CHARGE =    35.520483
:NPC   : PW Pseudocharge     =   103.064850
:NTO001: CHARGE SPHERE  1    =    79.517822
:NTO002: CHARGE SPHERE  2    =    52.323277
:NTO003: CHARGE SPHERE  3    =    33.760220
:NTO004: CHARGE SPHERE  4    =    33.759151

:NEC01: NUCLEAR AND ELECTRONIC CHARGE    968.00000   967.99897
     
       CHARGES OF OLD CHARGE DENSITY
:OTO   : INTERSTITIAL CHARGE =    35.521610
:OPC   : PW Pseudocharge     =   103.068169
:OTO001: CHARGE SPHERE  1    =    79.517916
:OTO002: CHARGE SPHERE  2    =    52.323286
:OTO003: CHARGE SPHERE  3    =    33.760180
:OTO004: CHARGE SPHERE  4    =    33.759108

:NEC02: NUCLEAR AND ELECTRONIC CHARGE    968.00000   968.00000
     
       CONVERGENCE TEST
:DTO001: DIFFERENCE IN SPHERE  1 =  0.0001281
:DTO002: DIFFERENCE IN SPHERE  2 =  0.0000459
:DTO003: DIFFERENCE IN SPHERE  3 =  0.0000476
:DTO004: DIFFERENCE IN SPHERE  4 =  0.0000501

:DIS  :  CHARGE DISTANCE       ( 0.0001281 for atom    1 spin 1)      0.0000644
 PW Mixed is         2247
 
******************************************************
* MULTISECANT MIXING VER9 RELEASE 10.4.0              *
* Standard Mode with controls                        *
* Fixed density scale                                *
* Regularization       1.000E-04                     *
* Trust Upper Limit    5.000E+00                     *
* Max Number of Memory Steps    8                    *
******************************************************
 
:PWTMP   3.9481E+03  2.5000E+03  5.2571E+03
:PLANE:  PW TOTAL      8.0995 DISTAN   2.97E-04  3.66E-03 %
:CHARG:  CLM/ATOM   1115.7999 DISTAN   8.78E-05  7.87E-06 %
 
Step History
        DMIX         DMIXT        Red     Pred      Trust     Lambda    MagRel    MagAbs     Beta
  3   4.2932E-02   4.2932E-02  9.02E-01  1.00E+00 -1.00E+01  3.95E-02  4.29E-02  7.12E-02  1.00E+00
  4   1.0733E-01   1.0733E-01  8.49E-01  1.00E+00  2.89E-01  1.23E+00  1.07E-01  1.60E-01  9.94E-01
  5   2.6832E-01   1.5424E-01  7.26E-01  7.75E-01  5.73E-01  1.18E+00  2.39E-01  3.03E-01  1.00E+00
  6   3.5000E-01   2.7160E-01  4.76E-01  5.03E-01  1.35E+00  1.08E+00  4.69E-01  4.33E-01  1.00E+00
  7   3.5000E-01   3.5000E-01  5.05E-02  1.05E-01  3.70E+00  8.91E-01  9.69E-01  4.25E-01  1.00E+00
  8   1.8582E-01   1.8582E-01  6.84E-01  8.82E-01  1.14E+01  1.18E+00  2.93E-01  6.49E-03  1.00E+00
  9   3.5000E-01   3.5000E-01  2.43E-01  5.10E-01  1.53E+01  7.23E-01  7.36E-01  1.11E-02  1.00E+00
 10   3.5000E-01   3.5000E-01  3.84E-01  5.62E-01  2.03E+01  1.04E+00  7.12E-01  2.62E-03  1.00E+00
 11   3.5000E-01   3.5000E-01 -1.00E+00  6.18E-01  2.25E+01  1.00E+00  6.34E-01  8.97E-04  1.00E+00
:JACOBIANS    1.657E+00   2.412E+00
  
:NORMS:  1/Froebius, Min, Max, Used   0.8992E+00  0.6455E+00  0.1033E+01  0.9305E+00
:INFO :  Number of Memory Steps    8 Skipping    2
:INFO :  SLambda=    0.8719121358  Max    0.8719121358
:PREDicted Charge, CTotal, PW Trust    6.553E-05   6.318E-04   9.029E-04
:PREDicted DMix, Beta, BLim   5.1535E-01  1.2554E+00  3.5337E+00

Eigenvalues, unscaled except for SY+YY
   #     SY Real        SY Imag          SS             YY         SY+YY Real      SY+YY Imag
   1   3.497723E+00   0.000000E+00   3.557219E+00   4.108519E+00   7.156889E+00   0.000000E+00
   2   2.467172E+00   0.000000E+00   2.392960E+00   2.556001E+00   4.697653E+00   0.000000E+00
   3   6.385431E-01   0.000000E+00   4.357607E-01   9.910561E-01   1.552913E+00   0.000000E+00
   4   1.387605E-01   0.000000E+00   6.798631E-02   3.017015E-01   4.279004E-01   0.000000E+00
   5   1.972307E-02   0.000000E+00   1.140617E-02   3.357128E-02   5.108198E-02   0.000000E+00
   6   5.277419E-03   0.000000E+00   2.616294E-03   9.063674E-03   1.387479E-02   0.000000E+00
   7   3.420004E-06   0.000000E+00   2.687707E-05   7.742474E-05   1.330055E-05   0.000000E+00
   8   4.541211E-05   0.000000E+00   1.096099E-06   1.024945E-05   1.190194E-04   0.000000E+00
 
:INFO :  Singular value  7.170E+00 Weight  1.000E+00 Projection  2.663E-06
:INFO :  Singular value  4.697E+00 Weight  1.000E+00 Projection  6.818E-05
:INFO :  Singular value  1.551E+00 Weight  1.000E+00 Projection -2.881E-04
:INFO :  Singular value  4.279E-01 Weight  1.000E+00 Projection  2.636E-05
:INFO :  Singular value  5.107E-02 Weight  9.999E-01 Projection  8.168E-04
:INFO :  Singular value  1.387E-02 Weight  9.991E-01 Projection  2.250E-03
:INFO :  Singular value  1.190E-04 Weight  7.744E-02 Projection  1.840E-03
:INFO :  Singular value  1.330E-05 Weight  1.047E-03 Projection  5.487E-06
:RANK :  ACTIVE   6.08/8  =  75.97 % ; YY RANK   6.03/8  =  75.41 %
 
:BLIM :  VZERO Control Off
:TRUST:  Step 2.25E+01  Charge 7.74E-02 (e) CTO  2.75E-01 (e) PW  8.20E-01 (e)
:DIRM :  MEMORY  8/8  SCALE   1.000 RED  0.33 PRED  0.62 NEXT  0.55 
:TRAVE:  Charge 2.36E-03 (e) CTO  8.57E-03 (e) PW  3.20E-02 (e)
:DIRP :  |MSR1|= 2.682E-04 |PRATT|= 2.966E-04 ANGLE=  22.1 DEGREES
:DIRQ :  |MSR1|= 2.535E-04 |PRATT|= 3.511E-04 ANGLE=  16.1 DEGREES
:DIRT :  |MSR1|= 3.690E-04 |PRATT|= 4.596E-04 ANGLE=  20.1 DEGREES
:MIX  :   MSD1   REGULARIZATION:  4.11E-04 GREED: 0.35000  Newton 1.00  0.8029                
     
       CHARGES OF MIXED CHARGE DENSITY
:CTO   : INTERSTITIAL CHARGE =    35.521622
:CPC   : PW Pseudocharge     =   103.068291
:CTO001: CHARGE SPHERE  1    =    79.517859
:CTO002: CHARGE SPHERE  2    =    52.323290
:CTO003: CHARGE SPHERE  3    =    33.760195
:CTO004: CHARGE SPHERE  4    =    33.759125

:NEC03: NUCLEAR AND ELECTRONIC CHARGE    968.00000   968.00000

PW CHANGE     H    K    L      Current       Change    Residue
:PTO001:      0    0    0  2.63625617E-02  2.547E-08 -8.340E-08
:PTO006:     -1    0   -1 -2.36601383E-03 -3.708E-08 -4.012E-08
:PTO007:      0    0   -2  2.54549306E-03 -4.055E-07 -6.094E-07
:PTO008:     -1   -1    0  4.85029752E-03 -7.301E-07 -1.142E-06
:PTO009:     -1   -1   -1 -1.04154322E-02 -3.349E-07 -3.448E-07
:PTO012:      0   -2    0  6.83663430E-03  2.767E-07  1.303E-07
:PTO013:     -1   -1   -2  2.13688262E-02  1.296E-06  7.291E-07
:PTO014:     -2    0    0  6.81384809E-03  3.616E-07  2.332E-07
:PTO015:      0   -2   -1  5.67889329E-03  3.859E-07  3.925E-07
:PTO018:     -1   -2    0 -1.03047517E-02  9.222E-08  8.550E-08
:PTO019:     -2   -1    0  1.13139455E-02 -1.156E-07 -1.181E-07
:PTO021:     -1   -2   -1  1.17680027E-02 -1.812E-07 -1.982E-07

:ENE  : ********** TOTAL ENERGY IN Ry =      -292309.72634341

       TOTAL FORCE IN mRy/a.u. = |F|     Fx             Fy             Fz     with/without FOR in case.in2
:FOR001:   1.ATOM          0.000          0.000          0.000          0.000 partial forces
:FOR002:   2.ATOM          0.269         -0.197          0.183          0.000 partial forces
:FOR003:   3.ATOM         25.638         23.220        -10.868          0.000 partial forces
:FOR004:   4.ATOM         35.232        -23.793        -19.728        -16.912 partial forces
       TOTAL FORCE WITH RESPECT TO GLOBAL CARTESIAN COORDINATES:
:FCA001:   1.ATOM                         0.000          0.000          0.000 partial forces
:FCA002:   2.ATOM                        -0.197          0.183          0.000 partial forces
:FCA003:   3.ATOM                        23.220        -10.868          0.000 partial forces
:FCA004:   4.ATOM                       -23.793        -19.728        -16.912 partial forces
       TOTAL FORCE WITH RESPECT TO THE GLOBAL COORDINATE SYSTEM:
:FGL001:   1.ATOM                 0.000000000     0.000000000     0.000000000 partial forces
:FGL002:   2.ATOM                -0.197183001     0.182594636     0.000000000 partial forces
:FGL003:   3.ATOM                23.220352191   -10.867881461     0.000000000 partial forces
:FGL004:   4.ATOM               -23.792730799   -19.728192531   -16.912215396 partial forces
