
:LABEL1: Calculations in /home/cmueller/wien/FZU/src/perovskite/Ecore_7
:LABEL2: on cv036 at Thu Jun 20 11:33:57 PM CEST 2024
:LABEL3: using WIEN2k_19.1 (Release 25/6/2019) in /home/cmueller/WIENROOT
:LABEL4: using the command: run_lapw

:LABEL1: Calculations in /home/cmueller/wien/FZU/src/perovskite/Ecore_7
:LABEL2: on cv036 at Thu Jun 20 11:41:32 PM CEST 2024
:LABEL3: using WIEN2k_19.1 (Release 25/6/2019) in /home/cmueller/WIENROOT
:LABEL4: using the command: run_lapw
 Flat Integration
 New Mode for Coulomb Integral
 Consistent 3/8+Simpson combinations
 Extension of core to zero
 LDM version in phi
 Fifth-order quadrature in outwin


            ---------
:ITE001:  1. ITERATION
            ---------

:NATO :    4 INDEPENDENT AND   20 TOTAL ATOMS IN UNITCELL
       SUBSTANCE: blebleble                                                   

       LATTICE                      = P   
:POT  : POTENTIAL OPTION EX_PBE EC_PBE VX_PBE VC_PBE
:LAT  : LATTICE CONSTANTS= 15.19415 15.66734 22.08372    1.571    1.571    1.571
:VOL  : UNIT CELL VOLUME =    5257.07306
       MODE OF CALCULATION IS       = RELA
       NON-SPINPOLARIZED CALCULATION
:IFFT  : FFT-parameters:  120  120  180 Factor: 2.00


   CONVERGENCE PARAMETER FOR PSEUDOCHARGE: NCON=  9
   MAXIMAL VALUE OF RMT(JATOM)*ABSK(NKK) : RK  =29.99804


:VKCOUL :  VK-COUL convergence: 0.423E-07
       ATOMNUMBER=  1 Pb         VCOUL-ZERO =  0.10897E+00
:EFG001:                        EFG         =     0.00590   *10**21  V / m**2
                               V20  TOT/SRF=     0.00113     0.00195
                               V22  TOT/SRF=    -0.00027    -0.00077
                               V22M TOT/SRF=    -0.00029    -0.00093
                               V21  TOT/SRF=     0.00242     0.00330
                               V21M TOT/SRF=    -0.00473    -0.00516

             -0.00092   -0.00029    0.00242       -0.00105    0.00000    0.00000
             -0.00029   -0.00038   -0.00473        0.00000    0.00590    0.00000
              0.00242   -0.00473    0.00130        0.00000    0.00000   -0.00485

         MAIN DIRECTIONS OF THE EFG   1.0000  0.3879 -0.5274
                                      0.5164 -0.7730  1.0000
                                      0.0112  1.0000  0.9776
:ANG001:  ANGLE WITH OLD X-AXIS =        33.2

:ETA001:                         ASYMM. ETA =     0.64411


       ATOMNUMBER=  2 Cs         VCOUL-ZERO = -0.49697E-01
:EFG002:                        EFG         =     0.00079   *10**21  V / m**2
                               V20  TOT/SRF=    -0.00038    -0.00033
                               V22  TOT/SRF=    -0.00031    -0.00059
                               V22M TOT/SRF=    -0.00049    -0.00143
                               V21  TOT/SRF=     0.00000     0.00000
                               V21M TOT/SRF=     0.00000     0.00000

             -0.00009   -0.00049    0.00000       -0.00036    0.00000    0.00000
             -0.00049    0.00053    0.00000        0.00000    0.00079    0.00000
              0.00000    0.00000   -0.00043        0.00000    0.00000   -0.00043

         MAIN DIRECTIONS OF THE EFG   1.0000 -0.5459  0.0000
                                      0.5459  1.0000  0.0000
                                      0.0000  0.0000  1.0000
:ANG002:  ANGLE WITH OLD X-AXIS =        28.6

:ETA002:                         ASYMM. ETA =     0.09356


       ATOMNUMBER=  3 Br         VCOUL-ZERO =  0.28031E+00
:EFG003:                        EFG         =    -0.02231   *10**21  V / m**2
                               V20  TOT/SRF=     0.01925     0.05961
                               V22  TOT/SRF=     0.00410     0.00562
                               V22M TOT/SRF=    -0.01042    -0.01150
                               V21  TOT/SRF=     0.00000     0.00000
                               V21M TOT/SRF=     0.00000     0.00000

             -0.00702   -0.01042    0.00000        0.00008    0.00000    0.00000
             -0.01042   -0.01521    0.00000        0.00000   -0.02231    0.00000
              0.00000    0.00000    0.02223        0.00000    0.00000    0.02223

         MAIN DIRECTIONS OF THE EFG   1.0000  0.6813  0.0000
                                     -0.6813  1.0000  0.0000
                                      0.0000  0.0000  1.0000
:ANG003:  ANGLE WITH OLD X-AXIS =        34.3

:ETA003:                         ASYMM. ETA =     0.99277


       ATOMNUMBER=  4 Br         VCOUL-ZERO =  0.28025E+00
:EFG004:                        EFG         =     0.02212   *10**21  V / m**2
                               V20  TOT/SRF=    -0.00625    -0.02554
                               V22  TOT/SRF=    -0.00319    -0.00440
                               V22M TOT/SRF=    -0.01622    -0.04902
                               V21  TOT/SRF=    -0.00456    -0.00425
                               V21M TOT/SRF=     0.00611     0.00781

              0.00042   -0.01622   -0.00456        0.02212    0.00000    0.00000
             -0.01622    0.00679    0.00611        0.00000   -0.01296    0.00000
             -0.00456    0.00611   -0.00722        0.00000    0.00000   -0.00916

         MAIN DIRECTIONS OF THE EFG  -0.8182  1.0000  0.2387
                                      1.0000  0.8580 -0.1399
                                      0.3353 -0.1186  1.0000
:ANG004:  ANGLE WITH OLD X-AXIS =       128.5

:ETA004:                         ASYMM. ETA =     0.17181


     HELLMANN-FEYNMAN-FORCE IN mRy/a.u. = |F|  Fx       Fy             Fz
:FHF001:   1.ATOM      0.000000000000      0.000000000000      0.000000000000      0.000000000000

     HELLMANN-FEYNMAN-FORCE IN mRy/a.u. = |F|  Fx       Fy             Fz
:FHF002:   2.ATOM     13.212661606233     13.207363767740      0.374124347533      0.000000000000

     HELLMANN-FEYNMAN-FORCE IN mRy/a.u. = |F|  Fx       Fy             Fz
:FHF003:   3.ATOM    220.113963888524    -93.045637347661   -199.480992751907      0.000000000000

     HELLMANN-FEYNMAN-FORCE IN mRy/a.u. = |F|  Fx       Fy             Fz
:FHF004:   4.ATOM    174.202709980683     55.580955909951    107.026757789216    125.708450876934

:FIT001: LUSE= 13 SIGMA OF V-XC FIT FOR ATOM  1  0.7571362E-03
:FIT001: LUSE= 13 SIGMA OF V-XC FIT FOR ATOM  1  0.7571362E-03
:FIT002: LUSE= 13 SIGMA OF V-XC FIT FOR ATOM  2  0.1645418E-04
:FIT002: LUSE= 13 SIGMA OF V-XC FIT FOR ATOM  2  0.1645418E-04
:FIT003: LUSE= 13 SIGMA OF V-XC FIT FOR ATOM  3  0.7450639E-03
:FIT003: LUSE= 13 SIGMA OF V-XC FIT FOR ATOM  3  0.7450639E-03
:FIT004: LUSE= 13 SIGMA OF V-XC FIT FOR ATOM  4  0.6626845E-03
:FIT004: LUSE= 13 SIGMA OF V-XC FIT FOR ATOM  4  0.6626845E-03
:DEN  : DENSITY INTEGRAL  =       -114061.79163689   (Ry)
       ELS_POTENTIAL_AT Z=0 and Z=0.5:  -0.57564  -0.57564
       ELS_POTENTIAL_AT Y=0 and Y=0.5:  -0.47943  -0.47943
:VZERO:v0,v0c,v0x  -1.32226  -0.57564  -0.74662 v5,v5c,v5x  -1.32226  -0.57564  -0.74662
:VZERY:v0,v0c,v0x  -1.13920  -0.47943  -0.65976 v5,v5c,v5x  -1.13920  -0.47943  -0.65976
:VZERX:v0,v0c,v0x  -1.13400  -0.48141  -0.65258 v5,v5c,v5x  -1.13400  -0.48141  -0.65258
:LMAX-WF:   10   Non-Spherical LMAX:   4

          ATOMIC SPHERE DEPENDENT PARAMETERS FOR ATOM  Pb        
:e__0001: OVERALL ENERGY PARAMETER IS    0.3000
          OVERALL BASIS SET ON ATOM IS LAPW
:E2_0001: E( 2)=    0.7000
             APW+lo
:E2_0001: E( 2)=   -0.9369   E(BOTTOM)=   -1.175   E(TOP)=   -0.699  2  3   123
             LOCAL ORBITAL
:E0_0001: E( 0)=    0.3000
             APW+lo
:E1_0001: E( 1)=    0.3000
             APW+lo

          ATOMIC SPHERE DEPENDENT PARAMETERS FOR ATOM  Cs        
:e__0002: OVERALL ENERGY PARAMETER IS    0.3000
          OVERALL BASIS SET ON ATOM IS LAPW
:E2_0002: E( 2)=    0.3000
             APW+lo
:E2_0002: E( 2)=   -4.8572   E(BOTTOM)=   -4.869   E(TOP)=   -4.846  1  2   120
             LOCAL ORBITAL
:E0_0002: E( 0)=    0.7000
             APW+lo
:E0_0002: E( 0)=   -1.3662   E(BOTTOM)=   -2.049   E(TOP)=   -0.683  4  5   169
             LOCAL ORBITAL
:E1_0002: E( 1)=    0.7000
             APW+lo
:E1_0002: E( 1)=   -0.1934   E(BOTTOM)=   -1.166   E(TOP)=    0.779  3  4   199
             LOCAL ORBITAL

          ATOMIC SPHERE DEPENDENT PARAMETERS FOR ATOM  Br        
:e__0003: OVERALL ENERGY PARAMETER IS    0.3000
          OVERALL BASIS SET ON ATOM IS LAPW
:E2_0003: E( 2)=    0.3000
             APW+lo
:E2_0003: E( 2)=   -4.3424   E(BOTTOM)=   -4.346   E(TOP)=   -4.339  1  1   115
             LOCAL ORBITAL
:E0_0003: E( 0)=    0.7000
             APW+lo
:E0_0003: E( 0)=   -0.9471   E(BOTTOM)=   -1.512   E(TOP)=   -0.382  3  4   158
             LOCAL ORBITAL
:E1_0003: E( 1)=    0.3000
             APW+lo

          ATOMIC SPHERE DEPENDENT PARAMETERS FOR ATOM  Br        
:e__0004: OVERALL ENERGY PARAMETER IS    0.3000
          OVERALL BASIS SET ON ATOM IS LAPW
:E2_0004: E( 2)=    0.3000
             APW+lo
:E2_0004: E( 2)=   -4.3426   E(BOTTOM)=   -4.346   E(TOP)=   -4.339  1  1   119
             LOCAL ORBITAL
:E0_0004: E( 0)=    0.7000
             APW+lo
:E0_0004: E( 0)=   -0.9473   E(BOTTOM)=   -1.512   E(TOP)=   -0.382  3  4   153
             LOCAL ORBITAL
:E1_0004: E( 1)=    0.3000
             APW+lo

       K=   0.04545   0.04545   0.07143            1
:RKM  : MATRIX SIZE  2239LOs: 308  RKM= 7.00  WEIGHT= 8.00  PGR:    
       EIGENVALUES ARE:
:EIG00001:      -4.8544135   -4.8544066   -4.8543945   -4.8543940   -4.8543909
:EIG00006:      -4.8543840   -4.8543812   -4.8543797   -4.8543758   -4.8543642
:EIG00011:      -4.8543589   -4.8543571   -4.8543421   -4.8543381   -4.8543222
:EIG00016:      -4.8543117   -4.8543088   -4.8543087   -4.8542974   -4.8542869
:EIG00021:      -4.3422810   -4.3422735   -4.3422702   -4.3422678   -4.3422641
:EIG00026:      -4.3422636   -4.3422586   -4.3422521   -4.3421714   -4.3421671
:EIG00031:      -4.3421650   -4.3421597   -4.3420072   -4.3420030   -4.3419986
:EIG00036:      -4.3419930   -4.3419917   -4.3419896   -4.3419830   -4.3419725
:EIG00041:      -4.3419525   -4.3419426   -4.3419337   -4.3419294   -4.3419269
:EIG00046:      -4.3419257   -4.3419248   -4.3419165   -4.3419144   -4.3419106
 
:EIG00051:      -4.3419048   -4.3419011   -4.3416394   -4.3416352   -4.3416289
:EIG00056:      -4.3416250   -4.3414995   -4.3414978   -4.3414903   -4.3414901
:EIG00061:      -4.3414835   -4.3414802   -4.3414766   -4.3414707   -4.3414589
:EIG00066:      -4.3414519   -4.3414438   -4.3414405   -4.3414399   -4.3414368
:EIG00071:      -4.3414300   -4.3414289   -4.3413185   -4.3413120   -4.3413088
:EIG00076:      -4.3413055   -4.3412456   -4.3412440   -4.3412395   -4.3412330
:EIG00081:      -1.3724538   -1.3722885   -1.3721047   -1.3720006   -0.9680621
:EIG00086:      -0.9679013   -0.9678192   -0.9675348   -0.9674598   -0.9663329
:EIG00091:      -0.9486585   -0.9484187   -0.9481214   -0.9479877   -0.9476231
:EIG00096:      -0.9472019   -0.9032500   -0.9031161   -0.9026813   -0.8964902
 
:EIG00101:      -0.8963521   -0.8962905   -0.8962147   -0.8961450   -0.8960825
:EIG00106:      -0.8957005   -0.8956731   -0.8955015   -0.8954576   -0.8953130
:EIG00111:      -0.8951651   -0.8928385   -0.8812501   -0.8701350   -0.8698395
:EIG00116:      -0.8693008   -0.4146076   -0.4122530   -0.4118075   -0.4104798
:EIG00121:      -0.4096949   -0.4093081   -0.4087996   -0.4078128   -0.4076201
:EIG00126:      -0.4073948   -0.4069181   -0.4062011   -0.4054464   -0.3660113
:EIG00131:      -0.3254570   -0.2640837   -0.1484019   -0.1475264   -0.1445350
:EIG00136:      -0.1404451   -0.1386110   -0.1296408   -0.0987648   -0.0810641
:EIG00141:      -0.0780721   -0.0765693   -0.0751827   -0.0680659   -0.0592593
:EIG00146:      -0.0537742   -0.0514989   -0.0489456   -0.0461455   -0.0438071
 
:EIG00151:      -0.0425797   -0.0406298   -0.0400276   -0.0386995   -0.0321101
:EIG00156:      -0.0272925   -0.0267999   -0.0263420   -0.0248653   -0.0234638
:EIG00161:      -0.0222508   -0.0199762   -0.0183698   -0.0181570   -0.0002350
:EIG00166:       0.0561510    0.1047870    0.1584421    0.3395895    0.3433230
:EIG00171:       0.3470906    0.3720648    0.3853302    0.4029180    0.4041323
:EIG00176:       0.4831588    0.4888192    0.4963571    0.5011231    0.5307634
:EIG00181:       0.5319098    0.5364370    0.5449287    0.5484394    0.5499480
:EIG00186:       0.5523326    0.5575910    0.5588834    0.5742657    0.5778840
:EIG00191:       0.5781299    0.5851942    0.5995434    0.6040485    0.6070714
:EIG00196:       0.6138049    0.6146064    0.6195524    0.6220910    0.6304980
 
:EIG00201:       0.6366448    0.6415250    0.6494714    0.6576437    0.6597020
:EIG00206:       0.6761419    0.6826206    0.6912096    0.6988470    0.7029316
:EIG00211:       0.7161681    0.7329057    0.7431505    0.7501911    0.7575806
:EIG00216:       0.7605323    0.7627196    0.7680572    0.7774277    0.7872115
:EIG00221:       0.7882390    0.7927191    0.7958026    0.8337439    0.8523473
:EIG00226:       0.8579264    0.8609467    0.8655504    0.8666599    0.8696625
:EIG00231:       0.8733823    0.8831496    0.8977075    0.8996330    0.9100011
:EIG00236:       0.9256383    0.9381866    0.9454882    0.9532245    0.9578645
:EIG00241:       0.9596311    0.9694404    0.9799617    0.9859399    0.9967192
:EIG00246:       0.9988241    1.0098671    1.0136925    1.0149938    1.0182024
 
:EIG00251:       1.0265321    1.0283798    1.0417650    1.0579761    1.0656635
:EIG00256:       1.0731316    1.0788491    1.0863255    1.0881306    1.0913261
:EIG00261:       1.0949039    1.0999877    1.1024565    1.1054170    1.1095164
:EIG00266:       1.1138464    1.1186093    1.1260508    1.1271733    1.1333806
:EIG00271:       1.1363189    1.1416798    1.1474882    1.1508231    1.1562419
:EIG00276:       1.1621473    1.1654817    1.1703752    1.1717273    1.1735397
:EIG00281:       1.1791837    1.1831861    1.1844632    1.1880260    1.1938293
:EIG00286:       1.1952947    1.2006508    1.2046882    1.2146478    1.2210526
:EIG00291:       1.2238779    1.2267581    1.2305996    1.2353227    1.2403271
:EIG00296:       1.2410037    1.2489579    1.2508454    1.2556949    1.2619293
 
:EIG00301:       1.2695172    1.2750513    1.2814072    1.2843841    1.2885801
:EIG00306:       1.2956216    1.3094365    1.3128966    1.3160924    1.3175191
:EIG00311:       1.3240753    1.3289769    1.3407009    1.3421081    1.3577788
:EIG00316:       1.3616733    1.3693204    1.3714556    1.3794605    1.3827191
:EIG00321:       1.3875040    1.3903282    1.4019886    1.4078303    1.4089295
:EIG00326:       1.4180556    1.4222684    1.4286095    1.4328154    1.4354448
:EIG00331:       1.4425878    1.4453645    1.4518143    1.4554314    1.4651470
:EIG00336:       1.4671151    1.4704168    1.4725281    1.4776817    1.4811567
:EIG00341:       1.4866051    1.4906835    1.4978518    1.4999352    1.5017673
:EIG00346:       1.5093257    1.5148267    1.5186411    1.5229018    1.5271322
 
:EIG00351:       1.5282459    1.5313316    1.5418163    1.5445577    1.5522072
:EIG00356:       1.5621301    1.5642254    1.5756212    1.5812829    1.5850314
:EIG00361:       1.5897029    1.5958798    1.6096683    1.6122557    1.6237715
:EIG00366:       1.6271518    1.6364091    1.6372120    1.6431398    1.6549262
:EIG00371:       1.6581479    1.6598161    1.6648159    1.6740582    1.6777248
:EIG00376:       1.6787490    1.6789833    1.6888656    1.6964071    1.7096916
:EIG00381:       1.7107632    1.7144108    1.7205441    1.7244024    1.7275188
:EIG00386:       1.7323242    1.7355409    1.7410213    1.7463056    1.7486441
:EIG00391:       1.7520268    1.7571561    1.7628657    1.7650761    1.7708519
:EIG00396:       1.7746227    1.7875246    1.7907245    1.7934809    1.7966732
 
:EIG00401:       1.8061436    1.8097272    1.8165562    1.8210944    1.8223953
:EIG00406:       1.8296185    1.8306699    1.8337616    1.8375365    1.8421630
:EIG00411:       1.8448643    1.8490524    1.8557560    1.8654793    1.8773834
:EIG00416:       1.8834393    1.8860160    1.8885773    1.8999470    1.9005741
:EIG00421:       1.9033566    1.9097556    1.9152070    1.9187285    1.9234073
:EIG00426:       1.9284476    1.9341806    1.9383053    1.9424804    1.9468653
:EIG00431:       1.9532751    1.9587707    1.9636813    1.9668783    1.9741310
:EIG00436:       1.9811638    1.9848876    1.9893953    1.9973704
       ********************************************************

:KPT   :      NUMBER OF K-POINTS:   144
       Insulator, EF-inconsistency corrected
:GAP (global)   :  0.181147 Ry =     2.465 eV (accurate value if proper k-mesh)
         Bandranges (emin - emax) and occupancy:
:BAN00158: 158   -0.036462   -0.025122  2.00000000
:BAN00159: 159   -0.033428   -0.024865  2.00000000
:BAN00160: 160   -0.033428   -0.023464  2.00000000
:BAN00161: 161   -0.029096   -0.021509  2.00000000
:BAN00162: 162   -0.028255   -0.019446  2.00000000
:BAN00163: 163   -0.023374   -0.013913  2.00000000
:BAN00164: 164   -0.023314   -0.013913  2.00000000
:BAN00165: 165   -0.000235    0.067224  2.00000000
:BAN00166: 166    0.010536    0.068990  2.00000000
:BAN00167: 167    0.040948    0.120534  2.00000000
:BAN00168: 168    0.040948    0.158442  2.00000000
:BAN00169: 169    0.339589    0.441295  0.00000000
:BAN00170: 170    0.343323    0.441295  0.00000000
:BAN00171: 171    0.347091    0.447699  0.00000000
:BAN00172: 172    0.364965    0.447699  0.00000000
:BAN00173: 173    0.381553    0.465491  0.00000000
        Energy to separate low and high energystates:   -0.46461


:NOE  : NUMBER OF ELECTRONS          =  336.000

:FER  : F E R M I - ENERGY(TETRAH.M.)=   0.1584421193
:GMA  : POTENTIAL AND CHARGE CUT-OFF  12.00 Ry**.5

:POS001: ATOM   -1 X,Y,Z = 0.50000 0.50000 0.50000  MULT= 4  ZZ= 82.000  Pb        

       LMMAX 28
       LM=   0 0  2 0  2 1 -2 1  2 2 -2 2  4 0  4 1 -4 1  4 2 -4 2  4 3 -4 3  4 4 -4 4  6 0  6 1
        -6 1  6 2 -6 2  6 3 -6 3  6 4 -6 4  6 5 -6 5  6 6 -6 6

:CHA001: TOTAL VALENCE CHARGE INSIDE SPHERE   1 =  11.3104    (RMT=  2.5000 )
:PCS001: PARTIAL CHARGES SPHERE =  1 S,P,D,F,PX,PY,PZ,D-Z2,D-X2Y2,D-XY,D-XZ,D-YZ 
:QTL001: 1.3301 0.2629 9.7026 0.0124 0.0868 0.0874 0.0887 1.9483 1.9366 1.9470 1.9358 1.9350
        Q-s-low E-s-low   Q-p-low E-p-low   Q-d-low E-d-low   Q-f-low E-f-low
:EPL001:  0.0177 -0.9545    0.0087 -0.9464    9.6271 -0.8979    0.0010 -0.9568
        Q-s-hi  E-s-hi    Q-p-hi  E-p-hi    Q-d-hi  E-d-hi    Q-f-hi  E-f-hi 
:EPH001:  1.3124 -0.2171    0.2542 -0.0907    0.0756 -0.0566    0.0114 -0.0583

                      QXX         QXY         QYY         QZZ       UP TO R
:VZZ001:             0.65360     0.65298     0.16107    -0.81467       2.500

:POS002: ATOM   -2 X,Y,Z = 0.48491 0.94655 0.25000  MULT= 4  ZZ= 55.000  Cs        

       LMMAX 28
       LM=   0 0  1 1 -1 1  2 0  2 2 -2 2  3 1 -3 1  3 3 -3 3  4 0  4 2 -4 2  4 4 -4 4  5 1 -5 1
         5 3 -5 3  5 5 -5 5  6 0  6 2 -6 2  6 4 -6 4  6 6 -6 6

:CHA002: TOTAL VALENCE CHARGE INSIDE SPHERE   2 =  16.2947    (RMT=  2.5000 )
:PCS002: PARTIAL CHARGES SPHERE =  2 S,P,D,F,PX,PY,PZ,D-Z2,D-X2Y2,D-XY,D-XZ,D-YZ 
:QTL002: 1.7960 4.487510.0093 0.0018 1.4951 1.4960 1.4964 2.0014 2.0022 2.0011 2.0019 2.0026
        Q-s-low E-s-low   Q-p-low E-p-low   Q-d-low E-d-low   Q-f-low E-f-low
:EPL002:  1.7865 -1.3718    0.0022 -0.9454    9.9946 -4.8543    0.0001 -1.0171
        Q-s-hi  E-s-hi    Q-p-hi  E-p-hi    Q-d-hi  E-d-hi    Q-f-hi  E-f-hi 
:EPH002:  0.0095 -0.0770    4.4853 -0.3968    0.0147 -0.0520    0.0017 -0.0450

                      QXX         QXY         QYY         QZZ       UP TO R
:VZZ002:             0.54774     1.59484    -0.11863    -0.42911       2.500

:POS003: ATOM   -3 X,Y,Z = 0.56000 0.50750 0.25000  MULT= 4  ZZ= 35.000  Br        

       LMMAX 28
       LM=   0 0  1 1 -1 1  2 0  2 2 -2 2  3 1 -3 1  3 3 -3 3  4 0  4 2 -4 2  4 4 -4 4  5 1 -5 1
         5 3 -5 3  5 5 -5 5  6 0  6 2 -6 2  6 4 -6 4  6 6 -6 6

:CHA003: TOTAL VALENCE CHARGE INSIDE SPHERE   3 =  15.9553    (RMT=  2.5000 )
:PCS003: PARTIAL CHARGES SPHERE =  3 S,P,D,F,PX,PY,PZ,D-Z2,D-X2Y2,D-XY,D-XZ,D-YZ 
:QTL003: 1.7970 4.141310.0141 0.0024 1.3989 1.4027 1.3397 2.0109 2.0004 2.0002 2.0017 2.0009
        Q-s-low E-s-low   Q-p-low E-p-low   Q-d-low E-d-low   Q-f-low E-f-low
:EPL003:  1.7662 -0.9479    0.0063 -0.9020   10.0001 -4.3411    0.0006 -0.9117
        Q-s-hi  E-s-hi    Q-p-hi  E-p-hi    Q-d-hi  E-d-hi    Q-f-hi  E-f-hi 
:EPH003:  0.0308 -0.2384    4.1350 -0.0589    0.0140 -0.1100    0.0018 -0.1584

                      QXX         QXY         QYY         QZZ       UP TO R
:VZZ003:            -5.13935    -0.36327    -6.35668    11.49603       2.500

:POS004: ATOM   -4 X,Y,Z = 0.19962 0.70227 0.46752  MULT= 8  ZZ= 35.000  Br        

       LMMAX 49

:CHA004: TOTAL VALENCE CHARGE INSIDE SPHERE   4 =  15.9560    (RMT=  2.5000 )
:PCS004: PARTIAL CHARGES SPHERE =  4 S,P,D,F,PX,PY,PZ,D-Z2,D-X2Y2,D-XY,D-XZ,D-YZ 
:QTL004: 1.7968 4.142710.0137 0.0024 1.3729 1.3699 1.3999 2.0027 2.0019 2.0073 2.0008 2.0009
        Q-s-low E-s-low   Q-p-low E-p-low   Q-d-low E-d-low   Q-f-low E-f-low
:EPL004:  1.7666 -0.9479    0.0061 -0.9008   10.0000 -4.3413    0.0006 -0.9144
        Q-s-hi  E-s-hi    Q-p-hi  E-p-hi    Q-d-hi  E-d-hi    Q-f-hi  E-f-hi 
:EPH004:  0.0301 -0.2387    4.1366 -0.0590    0.0136 -0.1123    0.0018 -0.1531

                      QXX         QXY         QYY         QZZ       UP TO R
:VZZ004:             2.16542    -8.20703     3.11561    -5.28103       2.500

:CHA  : TOTAL VALENCE CHARGE INSIDE UNIT CELL =     336.000000

:SUM  : SUM OF EIGENVALUES =        -800.985406094


        1.ATOM      Pb                   19 CORE STATES
:1S 001: 1S               -6465.856478861 Ry
:2S 001: 2S               -1154.903306790 Ry
:2PP001: 2P*              -1108.893817011 Ry
:2P 001: 2P                -947.935173972 Ry
:3S 001: 3S                -276.693360124 Ry
:3PP001: 3P*               -255.968010997 Ry
:3P 001: 3P                -220.054280836 Ry
:3DD001: 3D*               -186.062537820 Ry
:3D 001: 3D                -178.422247597 Ry
:4S 001: 4S                 -62.128808944 Ry
:4PP001: 4P*                -53.163996678 Ry
:4P 001: 4P                 -44.373404565 Ry
:4DD001: 4D*                -29.792605091 Ry
:4D 001: 4D                 -28.152442018 Ry
:5S 001: 5S                  -9.904885030 Ry
:5PP001: 5P*                 -6.849845520 Ry
:5P 001: 5P                  -5.208607376 Ry
:4FF001: 4F*                 -9.280070916 Ry
:4F 001: 4F                  -8.910355399 Ry

        2.ATOM      Cs                   12 CORE STATES
       CORE-FORCE in mRy/a.u. = |F|      Fx             Fy             Fz
:FCO002:   2.ATOM      8.842542940986     -8.835064566040     -0.363592872713      0.000000000000

:1S 002: 1S               -2628.589836052 Ry
:2S 002: 2S                -411.663315835 Ry
:2PP002: 2P*               -387.226059542 Ry
:2P 002: 2P                -361.334303543 Ry
:3S 002: 3S                 -85.113558932 Ry
:3PP002: 3P*                -74.910137637 Ry
:3P 002: 3P                 -69.948285401 Ry
:3DD002: 3D*                -52.028973622 Ry
:3D 002: 3D                 -50.975649671 Ry
:4S 002: 4S                 -15.579493186 Ry
:4PP002: 4P*                -11.918652724 Ry
:4P 002: 4P                 -10.906723180 Ry

        3.ATOM      Br                    7 CORE STATES
       CORE-FORCE in mRy/a.u. = |F|      Fx             Fy             Fz
:FCO003:   3.ATOM    113.798211866841     46.855090037281    103.704549377974      0.000000000000

:1S 003: 1S                -977.960077086 Ry
:2S 003: 2S                -126.757186875 Ry
:2PP003: 2P*               -114.087264181 Ry
:2P 003: 2P                -110.595877631 Ry
:3S 003: 3S                 -16.930995736 Ry
:3PP003: 3P*                -12.526450390 Ry
:3P 003: 3P                 -12.024239283 Ry

        4.ATOM      Br                    7 CORE STATES
       CORE-FORCE in mRy/a.u. = |F|      Fx             Fy             Fz
:FCO004:   4.ATOM     88.726814992281    -27.631481055139    -54.539348517191    -64.299365601025

:1S 004: 1S                -977.960247445 Ry
:2S 004: 2S                -126.757357083 Ry
:2PP004: 2P*               -114.087434426 Ry
:2P 004: 2P                -110.596047870 Ry
:3S 004: 3S                 -16.931164448 Ry
:3PP004: 3P*                -12.526618974 Ry
:3P 004: 3P                 -12.024407776 Ry
:CINT001 Core Integral Atom   1   67.995039
:CINT002 Core Integral Atom   2   35.999909
:CINT003 Core Integral Atom   3   17.999989
:CINT004 Core Integral Atom   4   17.999989

       DENSITY AT NUCLEUS
        JATOM        VALENCE       SEMI-CORE          CORE           TOTAL
:RTO001:   1     1927.878829        0.000000  9911349.920423  9913277.799252
:RTO002:   2      320.878675        0.000000   438170.878700   438491.757375
:RTO003:   3       73.645526        0.000000    45839.135817    45912.781342
:RTO004:   4       73.629449        0.000000    45839.135906    45912.765355
     
       CHARGES OF NEW CHARGE DENSITY
:NTO   : INTERSTITIAL CHARGE =    34.110563
:NPC   : PW Pseudocharge     =   103.143150
:NTO001: CHARGE SPHERE  1    =    79.305397
:NTO002: CHARGE SPHERE  2    =    52.294593
:NTO003: CHARGE SPHERE  3    =    33.955308
:NTO004: CHARGE SPHERE  4    =    33.955984

:NEC01: NUCLEAR AND ELECTRONIC CHARGE    968.00000   967.97963
     
       CHARGES OF OLD CHARGE DENSITY
:OTO   : INTERSTITIAL CHARGE =    36.640775
:OPC   : PW Pseudocharge     =   131.400754
:OTO001: CHARGE SPHERE  1    =    79.809567
:OTO002: CHARGE SPHERE  2    =    52.317982
:OTO003: CHARGE SPHERE  3    =    33.573161
:OTO004: CHARGE SPHERE  4    =    33.572536

:NEC02: NUCLEAR AND ELECTRONIC CHARGE    968.00000   968.02391
     
       CONVERGENCE TEST
:DTO001: DIFFERENCE IN SPHERE  1 =  0.2619580
:DTO002: DIFFERENCE IN SPHERE  2 =  0.0742550
:DTO003: DIFFERENCE IN SPHERE  3 =  0.1900921
:DTO004: DIFFERENCE IN SPHERE  4 =  0.1907625

:DIS  :  CHARGE DISTANCE       ( 0.2619580 for atom    1 spin 1)      0.1815660
 PW Mixed is         2247
 
******************************************************
* MULTISECANT MIXING VER9 RELEASE 10.4.0              *
* Standard Mode with controls                        *
* Fixed density scale                                *
* Regularization       1.000E-04                     *
* Trust Upper Limit    5.000E+00                     *
* Max Number of Memory Steps    8                    *
******************************************************
 
:PWTMP   3.9481E+03  2.5000E+03  5.2571E+03
:PLANE:  PW TOTAL     10.8628 DISTAN   3.49E+00  3.21E+01 %
:CHARG:  CLM/ATOM   1115.9684 DISTAN   2.17E-01  1.94E-02 %
 
Step History
        DMIX         DMIXT        Red     Pred      Trust     Lambda    MagRel    MagAbs     Beta
  1   3.5000E-02   3.5000E-02 -1.00E+00  1.00E+00 -1.00E+01  1.00E+00  3.50E-02  3.50E-02  1.00E+00
:INFO :  Note, Pratt in use
:TRUST:  Step 3.75E-02  Charge 7.50E-02 (e) CTO  4.43E-01 (e) PW  6.21E-01 (e)
:DIRM :  MEMORY  0/ 8 SCALE   1.000
Performing Pseudo Compensation
Final Pseudo Compensation Rescaling     1.00017E+00
:MIX  :   PRATT  REGULARIZATION:  1.00E-04 GREED: 0.02500                  
     
       CHARGES OF MIXED CHARGE DENSITY
:CTO   : INTERSTITIAL CHARGE =    36.554718
:CPC   : PW Pseudocharge     =   113.536527
:CTO001: CHARGE SPHERE  1    =    79.796963
:CTO002: CHARGE SPHERE  2    =    52.317397
:CTO003: CHARGE SPHERE  3    =    33.582715
:CTO004: CHARGE SPHERE  4    =    33.582123

:NEC03: NUCLEAR AND ELECTRONIC CHARGE    968.00000   968.00000

PW CHANGE     H    K    L      Current       Change    Residue
:PTO001:      0    0    0  2.85503442E-02 -3.394E-03 -5.820E-03
:PTO006:     -1    0   -1 -2.51637792E-03  2.685E-04  3.934E-04
:PTO007:      0    0   -2  3.54029284E-03 -1.918E-03 -3.356E-03
:PTO008:     -1   -1    0  6.73949861E-03 -3.963E-03 -6.792E-03
:PTO009:     -1   -1   -1 -1.09892496E-02  1.548E-03  2.191E-03
:PTO012:      0   -2    0  8.00609304E-03 -3.040E-03 -4.732E-03
:PTO013:     -1   -1   -2  2.58157262E-02 -1.152E-02 -1.846E-02
:PTO014:     -2    0    0  7.95693566E-03 -3.092E-03 -4.793E-03
:PTO015:      0   -2   -1  6.10838523E-03 -1.114E-03 -1.748E-03
:PTO018:     -1   -2    0 -1.10000055E-02  1.244E-03  1.562E-03
:PTO019:     -2   -1    0  1.21014199E-02 -1.400E-03 -1.765E-03
:PTO021:     -1   -2   -1  1.26270418E-02 -1.485E-03 -1.878E-03

:ENE  : ********** TOTAL ENERGY IN Ry =      -292313.14250146

       TOTAL FORCE IN mRy/a.u. = |F|     Fx             Fy             Fz     with/without FOR in case.in2
:FOR001:   1.ATOM          0.000          0.000          0.000          0.000 partial forces
:FOR002:   2.ATOM          4.372          4.372          0.011          0.000 partial forces
:FOR003:   3.ATOM        106.333        -46.191        -95.776          0.000 partial forces
:FOR004:   4.ATOM         85.482         27.949         52.487         61.409 partial forces
       TOTAL FORCE WITH RESPECT TO GLOBAL CARTESIAN COORDINATES:
:FCA001:   1.ATOM                         0.000          0.000          0.000 partial forces
:FCA002:   2.ATOM                         4.372          0.011          0.000 partial forces
:FCA003:   3.ATOM                       -46.191        -95.776          0.000 partial forces
:FCA004:   4.ATOM                        27.949         52.487         61.409 partial forces
       TOTAL FORCE WITH RESPECT TO THE GLOBAL COORDINATE SYSTEM:
:FGL001:   1.ATOM                 0.000000000     0.000000000     0.000000000 partial forces
:FGL002:   2.ATOM                 4.372299202     0.010531475     0.000000000 partial forces
:FGL003:   3.ATOM               -46.190547310   -95.776443374     0.000000000 partial forces
:FGL004:   4.ATOM                27.949474855    52.487409272    61.409085276 partial forces
 Flat Integration
 New Mode for Coulomb Integral
 Consistent 3/8+Simpson combinations
 Extension of core to zero
 LDM version in phi
 Fifth-order quadrature in outwin


            ---------
:ITE002:  2. ITERATION
            ---------

:NATO :    4 INDEPENDENT AND   20 TOTAL ATOMS IN UNITCELL
       SUBSTANCE: blebleble                                                   

       LATTICE                      = P   
:POT  : POTENTIAL OPTION EX_PBE EC_PBE VX_PBE VC_PBE
:LAT  : LATTICE CONSTANTS= 15.19415 15.66734 22.08372    1.571    1.571    1.571
:VOL  : UNIT CELL VOLUME =    5257.07306
       MODE OF CALCULATION IS       = RELA
       NON-SPINPOLARIZED CALCULATION
:IFFT  : FFT-parameters:  120  120  180 Factor: 2.00


   CONVERGENCE PARAMETER FOR PSEUDOCHARGE: NCON=  9
   MAXIMAL VALUE OF RMT(JATOM)*ABSK(NKK) : RK  =29.99804


:VKCOUL :  VK-COUL convergence: 0.233E-08
       ATOMNUMBER=  1 Pb         VCOUL-ZERO =  0.95796E-01
:EFG001:                        EFG         =     0.02831   *10**21  V / m**2
                               V20  TOT/SRF=    -0.01647     0.00190
                               V22  TOT/SRF=     0.00589    -0.00072
                               V22M TOT/SRF=     0.01604    -0.00085
                               V21  TOT/SRF=    -0.00656     0.00319
                               V21M TOT/SRF=    -0.00633    -0.00511

              0.01540    0.01604   -0.00656        0.02831    0.00000    0.00000
              0.01604    0.00362   -0.00633        0.00000   -0.00743    0.00000
             -0.00656   -0.00633   -0.01902        0.00000    0.00000   -0.02088

         MAIN DIRECTIONS OF THE EFG   1.0000 -0.7394  0.0936
                                      0.7095  1.0000  0.1971
                                     -0.2334 -0.1279  1.0000
:ANG001:  ANGLE WITH OLD X-AXIS =        36.7

:ETA001:                         ASYMM. ETA =     0.47529


       ATOMNUMBER=  2 Cs         VCOUL-ZERO = -0.57643E-01
:EFG002:                        EFG         =     0.04608   *10**21  V / m**2
                               V20  TOT/SRF=    -0.00975    -0.00042
                               V22  TOT/SRF=     0.00806    -0.00052
                               V22M TOT/SRF=     0.03964    -0.00110
                               V21  TOT/SRF=     0.00000     0.00000
                               V21M TOT/SRF=     0.00000     0.00000

              0.01369    0.03964    0.00000        0.04608    0.00000    0.00000
              0.03964   -0.00243    0.00000        0.00000   -0.03482    0.00000
              0.00000    0.00000   -0.01126        0.00000    0.00000   -0.01126

         MAIN DIRECTIONS OF THE EFG   1.0000 -0.8171  0.0000
                                      0.8171  1.0000  0.0000
                                      0.0000  0.0000  1.0000
:ANG002:  ANGLE WITH OLD X-AXIS =        39.3

:ETA002:                         ASYMM. ETA =     0.51121


       ATOMNUMBER=  3 Br         VCOUL-ZERO =  0.27407E+00
:EFG003:                        EFG         =     0.31479   *10**21  V / m**2
                               V20  TOT/SRF=     0.27261     0.06293
                               V22  TOT/SRF=     0.01944     0.00570
                               V22M TOT/SRF=    -0.01946    -0.01138
                               V21  TOT/SRF=     0.00000     0.00000
                               V21M TOT/SRF=     0.00000     0.00000

             -0.13795   -0.01946    0.00000       -0.12988    0.00000    0.00000
             -0.01946   -0.17684    0.00000        0.00000   -0.18490    0.00000
              0.00000    0.00000    0.31479        0.00000    0.00000    0.31479

         MAIN DIRECTIONS OF THE EFG   1.0000  0.4145  0.0000
                                     -0.4145  1.0000  0.0000
                                      0.0000  0.0000  1.0000
:ANG003:  ANGLE WITH OLD X-AXIS =        22.5

:ETA003:                         ASYMM. ETA =     0.17478


       ATOMNUMBER=  4 Br         VCOUL-ZERO =  0.27410E+00
:EFG004:                        EFG         =     0.29764   *10**21  V / m**2
                               V20  TOT/SRF=    -0.12276    -0.02716
                               V22  TOT/SRF=    -0.01519    -0.00448
                               V22M TOT/SRF=    -0.22509    -0.05178
                               V21  TOT/SRF=    -0.02584    -0.00411
                               V21M TOT/SRF=     0.00676     0.00786

              0.05568   -0.22509   -0.02584        0.29764    0.00000    0.00000
             -0.22509    0.08606    0.00676        0.00000   -0.16423    0.00000
             -0.02584    0.00676   -0.14175        0.00000    0.00000   -0.13340

         MAIN DIRECTIONS OF THE EFG  -0.9378  1.0000 -0.4525
                                      1.0000  0.8754 -0.4949
                                      0.0705  0.8857  1.0000
:ANG004:  ANGLE WITH OLD X-AXIS =       130.5

:ETA004:                         ASYMM. ETA =     0.10358


     HELLMANN-FEYNMAN-FORCE IN mRy/a.u. = |F|  Fx       Fy             Fz
:FHF001:   1.ATOM      0.000000000000      0.000000000000      0.000000000000      0.000000000000

     HELLMANN-FEYNMAN-FORCE IN mRy/a.u. = |F|  Fx       Fy             Fz
:FHF002:   2.ATOM     12.778986668199     12.710699607659      1.319323974567      0.000000000000

     HELLMANN-FEYNMAN-FORCE IN mRy/a.u. = |F|  Fx       Fy             Fz
:FHF003:   3.ATOM    205.702148063502    -81.097819644408   -189.041046777841      0.000000000000

     HELLMANN-FEYNMAN-FORCE IN mRy/a.u. = |F|  Fx       Fy             Fz
:FHF004:   4.ATOM    153.744869565244     45.232395829326     94.443884836600    112.569391497619

:FIT001: LUSE= 13 SIGMA OF V-XC FIT FOR ATOM  1  0.7699686E-03
:FIT001: LUSE= 13 SIGMA OF V-XC FIT FOR ATOM  1  0.7699686E-03
:FIT002: LUSE= 13 SIGMA OF V-XC FIT FOR ATOM  2  0.1706829E-04
:FIT002: LUSE= 13 SIGMA OF V-XC FIT FOR ATOM  2  0.1706829E-04
:FIT003: LUSE= 13 SIGMA OF V-XC FIT FOR ATOM  3  0.7195878E-03
:FIT003: LUSE= 13 SIGMA OF V-XC FIT FOR ATOM  3  0.7195878E-03
:FIT004: LUSE= 13 SIGMA OF V-XC FIT FOR ATOM  4  0.6397595E-03
:FIT004: LUSE= 13 SIGMA OF V-XC FIT FOR ATOM  4  0.6397595E-03
:DEN  : DENSITY INTEGRAL  =       -114052.97268676   (Ry)
       ELS_POTENTIAL_AT Z=0 and Z=0.5:  -0.54399  -0.54399
       ELS_POTENTIAL_AT Y=0 and Y=0.5:  -0.45460  -0.45460
:VZERO:v0,v0c,v0x  -1.26511  -0.54399  -0.72112 v5,v5c,v5x  -1.26511  -0.54399  -0.72112
:VZERY:v0,v0c,v0x  -1.09374  -0.45460  -0.63914 v5,v5c,v5x  -1.09374  -0.45460  -0.63914
:VZERX:v0,v0c,v0x  -1.08666  -0.45418  -0.63249 v5,v5c,v5x  -1.08666  -0.45418  -0.63249
:LMAX-WF:   10   Non-Spherical LMAX:   4

          ATOMIC SPHERE DEPENDENT PARAMETERS FOR ATOM  Pb        
:e__0001: OVERALL ENERGY PARAMETER IS    0.1000
          OVERALL BASIS SET ON ATOM IS LAPW
:E2_0001: E( 2)=    0.5000
             APW+lo
:E2_0001: E( 2)=   -0.9530   E(BOTTOM)=   -1.190   E(TOP)=   -0.716  2  3   124
             LOCAL ORBITAL
:E0_0001: E( 0)=    0.1000
             APW+lo
:E1_0001: E( 1)=    0.1000
             APW+lo

          ATOMIC SPHERE DEPENDENT PARAMETERS FOR ATOM  Cs        
:e__0002: OVERALL ENERGY PARAMETER IS    0.1000
          OVERALL BASIS SET ON ATOM IS LAPW
:E2_0002: E( 2)=    0.1000
             APW+lo
:E2_0002: E( 2)=   -4.8658   E(BOTTOM)=   -4.877   E(TOP)=   -4.854  1  2   122
             LOCAL ORBITAL
:E0_0002: E( 0)=    0.5000
             APW+lo
:E0_0002: E( 0)=   -1.3744   E(BOTTOM)=   -2.057   E(TOP)=   -0.692  4  5   165
             LOCAL ORBITAL
:E1_0002: E( 1)=    0.5000
             APW+lo
:E1_0002: E( 1)=   -0.2016   E(BOTTOM)=   -1.174   E(TOP)=    0.771  3  4   197
             LOCAL ORBITAL

          ATOMIC SPHERE DEPENDENT PARAMETERS FOR ATOM  Br        
:e__0003: OVERALL ENERGY PARAMETER IS    0.1000
          OVERALL BASIS SET ON ATOM IS LAPW
:E2_0003: E( 2)=    0.1000
             APW+lo
:E2_0003: E( 2)=   -4.3446   E(BOTTOM)=   -4.348   E(TOP)=   -4.341  1  1   124
             LOCAL ORBITAL
:E0_0003: E( 0)=    0.5000
             APW+lo
:E0_0003: E( 0)=   -0.9512   E(BOTTOM)=   -1.517   E(TOP)=   -0.386  3  4   157
             LOCAL ORBITAL
:E1_0003: E( 1)=    0.1000
             APW+lo

          ATOMIC SPHERE DEPENDENT PARAMETERS FOR ATOM  Br        
:e__0004: OVERALL ENERGY PARAMETER IS    0.1000
          OVERALL BASIS SET ON ATOM IS LAPW
:E2_0004: E( 2)=    0.1000
             APW+lo
:E2_0004: E( 2)=   -4.3446   E(BOTTOM)=   -4.348   E(TOP)=   -4.341  1  1   122
             LOCAL ORBITAL
:E0_0004: E( 0)=    0.5000
             APW+lo
:E0_0004: E( 0)=   -0.9513   E(BOTTOM)=   -1.517   E(TOP)=   -0.386  3  4   156
             LOCAL ORBITAL
:E1_0004: E( 1)=    0.1000
             APW+lo

       K=   0.04545   0.04545   0.07143            1
:RKM  : MATRIX SIZE  2239LOs: 308  RKM= 7.00  WEIGHT= 8.00  PGR:    
       EIGENVALUES ARE:
:EIG00001:      -4.8629799   -4.8629767   -4.8629613   -4.8629600   -4.8629572
:EIG00006:      -4.8629542   -4.8629503   -4.8629428   -4.8629383   -4.8629341
:EIG00011:      -4.8629317   -4.8629304   -4.8629209   -4.8629097   -4.8628997
:EIG00016:      -4.8628898   -4.8628852   -4.8628758   -4.8628696   -4.8628550
:EIG00021:      -4.3444372   -4.3444292   -4.3444268   -4.3444262   -4.3444245
:EIG00026:      -4.3444221   -4.3444178   -4.3444170   -4.3444149   -4.3444119
:EIG00031:      -4.3444090   -4.3444042   -4.3441503   -4.3441364   -4.3441335
:EIG00036:      -4.3441320   -4.3441108   -4.3441023   -4.3441008   -4.3440957
:EIG00041:      -4.3440947   -4.3440923   -4.3440861   -4.3440749   -4.3440508
:EIG00046:      -4.3440451   -4.3440333   -4.3440269   -4.3440195   -4.3440178
 
:EIG00051:      -4.3440111   -4.3440073   -4.3438559   -4.3438507   -4.3438456
:EIG00056:      -4.3438407   -4.3434766   -4.3434763   -4.3434677   -4.3434674
:EIG00061:      -4.3434606   -4.3434572   -4.3434538   -4.3434485   -4.3434369
:EIG00066:      -4.3434280   -4.3434204   -4.3434171   -4.3434166   -4.3434138
:EIG00071:      -4.3434074   -4.3434050   -4.3433900   -4.3433835   -4.3433806
:EIG00076:      -4.3433772   -4.3433240   -4.3433227   -4.3433183   -4.3433116
:EIG00081:      -1.3805893   -1.3804269   -1.3802445   -1.3801415   -0.9760571
:EIG00086:      -0.9758085   -0.9757233   -0.9747283   -0.9735974   -0.9708996
:EIG00091:      -0.9529696   -0.9527692   -0.9525818   -0.9522794   -0.9518255
:EIG00096:      -0.9513832   -0.9193136   -0.9191192   -0.9185871   -0.9127732
 
:EIG00101:      -0.9126379   -0.9125740   -0.9125005   -0.9124251   -0.9123661
:EIG00106:      -0.9119836   -0.9119598   -0.9117984   -0.9117551   -0.9116075
:EIG00111:      -0.9114560   -0.9073320   -0.8945320   -0.8824494   -0.8821913
:EIG00116:      -0.8816550   -0.4224829   -0.4205891   -0.4201169   -0.4195369
:EIG00121:      -0.4179022   -0.4174973   -0.4172704   -0.4157498   -0.4157078
:EIG00126:      -0.4154950   -0.4150685   -0.4142489   -0.4133381   -0.3777666
:EIG00131:      -0.3375652   -0.2771181   -0.1550586   -0.1542768   -0.1513254
:EIG00136:      -0.1471178   -0.1452684   -0.1365386   -0.1037548   -0.0861396
:EIG00141:      -0.0830768   -0.0816067   -0.0802452   -0.0731087   -0.0642851
:EIG00146:      -0.0584705   -0.0562534   -0.0536485   -0.0509852   -0.0485962
 
:EIG00151:      -0.0472900   -0.0452732   -0.0448066   -0.0435416   -0.0369666
:EIG00156:      -0.0326336   -0.0322440   -0.0318648   -0.0296509   -0.0282093
:EIG00161:      -0.0269749   -0.0244637   -0.0229473   -0.0226154   -0.0051804
:EIG00166:       0.0487597    0.0968969    0.1500419    0.3291659    0.3328254
:EIG00171:       0.3367914    0.3615310    0.3747378    0.3925223    0.3971232
:EIG00176:       0.4764506    0.4822433    0.4892099    0.4942622    0.5220758
:EIG00181:       0.5245503    0.5291325    0.5366631    0.5409402    0.5415718
:EIG00186:       0.5450565    0.5505204    0.5518490    0.5660464    0.5701793
:EIG00191:       0.5712373    0.5784301    0.5915546    0.5950361    0.5990433
:EIG00196:       0.6050139    0.6063380    0.6114917    0.6139711    0.6235976
 
:EIG00201:       0.6291744    0.6334534    0.6420580    0.6502547    0.6524045
:EIG00206:       0.6690916    0.6754942    0.6843722    0.6914357    0.6961131
:EIG00211:       0.7092670    0.7259026    0.7361750    0.7435955    0.7508708
:EIG00216:       0.7535325    0.7560109    0.7613449    0.7707641    0.7805172
:EIG00221:       0.7817199    0.7861609    0.7890346    0.8267424    0.8457565
:EIG00226:       0.8511979    0.8538414    0.8588222    0.8599767    0.8629176
:EIG00231:       0.8664928    0.8764822    0.8905842    0.8926945    0.9035797
:EIG00236:       0.9191610    0.9313679    0.9387614    0.9466939    0.9513013
:EIG00241:       0.9532018    0.9626645    0.9739151    0.9788138    0.9899910
:EIG00246:       0.9919008    1.0027484    1.0074521    1.0087993    1.0123095
 
:EIG00251:       1.0198799    1.0216306    1.0356131    1.0516716    1.0596678
:EIG00256:       1.0669105    1.0738018    1.0806103    1.0826999    1.0861264
:EIG00261:       1.0894634    1.0952779    1.0978509    1.1005163    1.1046307
:EIG00266:       1.1090015    1.1137749    1.1207844    1.1217679    1.1283880
:EIG00271:       1.1310278    1.1367048    1.1429863    1.1464072    1.1508328
:EIG00276:       1.1571483    1.1604597    1.1652218    1.1670444    1.1681404
:EIG00281:       1.1745491    1.1785905    1.1800464    1.1837019    1.1891052
:EIG00286:       1.1899546    1.1958792    1.2000815    1.2118275    1.2170473
:EIG00291:       1.2203679    1.2236340    1.2271855    1.2318024    1.2367417
:EIG00296:       1.2374814    1.2458351    1.2470488    1.2539514    1.2568643
 
:EIG00301:       1.2653550    1.2710029    1.2780710    1.2804940    1.2843139
:EIG00306:       1.2927109    1.3051305    1.3102042    1.3127129    1.3150661
:EIG00311:       1.3193489    1.3320490    1.3371760    1.3402488    1.3530847
:EIG00316:       1.3620122    1.3673930    1.3695173    1.3767236    1.3842079
:EIG00321:       1.3859758    1.3891158    1.4014447    1.4082885    1.4094841
:EIG00326:       1.4206056    1.4259417    1.4282791    1.4328990    1.4366365
:EIG00331:       1.4425737    1.4429091    1.4489363    1.4553064    1.4638930
:EIG00336:       1.4654773    1.4699919    1.4721457    1.4792488    1.4821962
:EIG00341:       1.4867852    1.4927624    1.5006008    1.5009455    1.5032992
:EIG00346:       1.5117727    1.5165550    1.5189702    1.5230770    1.5253697
 
:EIG00351:       1.5286550    1.5353006    1.5442126    1.5462018    1.5492827
:EIG00356:       1.5593246    1.5634301    1.5733007    1.5787993    1.5829956
:EIG00361:       1.5851546    1.5949091    1.6087512    1.6116001    1.6239162
:EIG00366:       1.6267347    1.6355505    1.6384529    1.6435637    1.6530623
:EIG00371:       1.6559506    1.6595508    1.6630753    1.6723071    1.6758492
:EIG00376:       1.6778984    1.6798563    1.6845921    1.6925712    1.7076185
:EIG00381:       1.7093443    1.7106210    1.7207551    1.7221375    1.7231333
:EIG00386:       1.7305156    1.7340194    1.7362373    1.7443971    1.7462933
:EIG00391:       1.7507800    1.7548006    1.7623926    1.7661313    1.7690215
:EIG00396:       1.7756798    1.7872204    1.7892433    1.7935772    1.7952747
 
       ********************************************************

:KPT   :      NUMBER OF K-POINTS:   144
       Insulator, EF-inconsistency corrected
:GAP (global)   :  0.179124 Ry =     2.437 eV (accurate value if proper k-mesh)
         Bandranges (emin - emax) and occupancy:
:BAN00158: 158   -0.041150   -0.029817  2.00000000
:BAN00159: 159   -0.038240   -0.029519  2.00000000
:BAN00160: 160   -0.038240   -0.028209  2.00000000
:BAN00161: 161   -0.034174   -0.026162  2.00000000
:BAN00162: 162   -0.033232   -0.024028  2.00000000
:BAN00163: 163   -0.028088   -0.018446  2.00000000
:BAN00164: 164   -0.028088   -0.018446  2.00000000
:BAN00165: 165   -0.005180    0.059516  2.00000000
:BAN00166: 166    0.004473    0.061283  2.00000000
:BAN00167: 167    0.032984    0.112286  2.00000000
:BAN00168: 168    0.032984    0.150042  2.00000000
:BAN00169: 169    0.329166    0.432349  0.00000000
:BAN00170: 170    0.332825    0.432349  0.00000000
:BAN00171: 171    0.336791    0.438490  0.00000000
:BAN00172: 172    0.354578    0.438490  0.00000000
:BAN00173: 173    0.370965    0.455972  0.00000000
        Energy to separate low and high energystates:   -0.47248


:NOE  : NUMBER OF ELECTRONS          =  336.000

:FER  : F E R M I - ENERGY(TETRAH.M.)=   0.1500419135
:GMA  : POTENTIAL AND CHARGE CUT-OFF  12.00 Ry**.5

:POS001: ATOM   -1 X,Y,Z = 0.50000 0.50000 0.50000  MULT= 4  ZZ= 82.000  Pb        

       LMMAX 28
       LM=   0 0  2 0  2 1 -2 1  2 2 -2 2  4 0  4 1 -4 1  4 2 -4 2  4 3 -4 3  4 4 -4 4  6 0  6 1
        -6 1  6 2 -6 2  6 3 -6 3  6 4 -6 4  6 5 -6 5  6 6 -6 6

:CHA001: TOTAL VALENCE CHARGE INSIDE SPHERE   1 =  11.3206    (RMT=  2.5000 )
:PCS001: PARTIAL CHARGES SPHERE =  1 S,P,D,F,PX,PY,PZ,D-Z2,D-X2Y2,D-XY,D-XZ,D-YZ 
:QTL001: 1.3321 0.2694 9.7043 0.0125 0.0890 0.0896 0.0908 1.9487 1.9369 1.9473 1.9361 1.9353
        Q-s-low E-s-low   Q-p-low E-p-low   Q-d-low E-d-low   Q-f-low E-f-low
:EPL001:  0.0183 -0.9591    0.0089 -0.9507    9.6292 -0.9141    0.0010 -0.9607
        Q-s-hi  E-s-hi    Q-p-hi  E-p-hi    Q-d-hi  E-d-hi    Q-f-hi  E-f-hi 
:EPH001:  1.3137 -0.2311    0.2606 -0.0974    0.0750 -0.0621    0.0115 -0.0638

                      QXX         QXY         QYY         QZZ       UP TO R
:VZZ001:             0.65276     0.66636     0.14505    -0.79781       2.500

:POS002: ATOM   -2 X,Y,Z = 0.48491 0.94655 0.25000  MULT= 4  ZZ= 55.000  Cs        

       LMMAX 28
       LM=   0 0  1 1 -1 1  2 0  2 2 -2 2  3 1 -3 1  3 3 -3 3  4 0  4 2 -4 2  4 4 -4 4  5 1 -5 1
         5 3 -5 3  5 5 -5 5  6 0  6 2 -6 2  6 4 -6 4  6 6 -6 6

:CHA002: TOTAL VALENCE CHARGE INSIDE SPHERE   2 =  16.2966    (RMT=  2.5000 )
:PCS002: PARTIAL CHARGES SPHERE =  2 S,P,D,F,PX,PY,PZ,D-Z2,D-X2Y2,D-XY,D-XZ,D-YZ 
:QTL002: 1.7962 4.489010.0095 0.0018 1.4956 1.4965 1.4969 2.0014 2.0023 2.0011 2.0020 2.0027
        Q-s-low E-s-low   Q-p-low E-p-low   Q-d-low E-d-low   Q-f-low E-f-low
:EPL002:  1.7866 -1.3800    0.0022 -0.9500    9.9946 -4.8629    0.0001 -1.0267
        Q-s-hi  E-s-hi    Q-p-hi  E-p-hi    Q-d-hi  E-d-hi    Q-f-hi  E-f-hi 
:EPH002:  0.0095 -0.0819    4.4868 -0.4047    0.0149 -0.0568    0.0017 -0.0498

                      QXX         QXY         QYY         QZZ       UP TO R
:VZZ002:             0.55867     1.61966    -0.11699    -0.44169       2.500

:POS003: ATOM   -3 X,Y,Z = 0.56000 0.50750 0.25000  MULT= 4  ZZ= 35.000  Br        

       LMMAX 28
       LM=   0 0  1 1 -1 1  2 0  2 2 -2 2  3 1 -3 1  3 3 -3 3  4 0  4 2 -4 2  4 4 -4 4  5 1 -5 1
         5 3 -5 3  5 5 -5 5  6 0  6 2 -6 2  6 4 -6 4  6 6 -6 6

:CHA003: TOTAL VALENCE CHARGE INSIDE SPHERE   3 =  15.9441    (RMT=  2.5000 )
:PCS003: PARTIAL CHARGES SPHERE =  3 S,P,D,F,PX,PY,PZ,D-Z2,D-X2Y2,D-XY,D-XZ,D-YZ 
:QTL003: 1.7964 4.130610.0140 0.0024 1.3961 1.4001 1.3343 2.0109 2.0004 2.0002 2.0017 2.0010
        Q-s-low E-s-low   Q-p-low E-p-low   Q-d-low E-d-low   Q-f-low E-f-low
:EPL003:  1.7651 -0.9522    0.0061 -0.9174   10.0001 -4.3433    0.0006 -0.9276
        Q-s-hi  E-s-hi    Q-p-hi  E-p-hi    Q-d-hi  E-d-hi    Q-f-hi  E-f-hi 
:EPH003:  0.0314 -0.2503    4.1245 -0.0641    0.0140 -0.1199    0.0018 -0.1691

                      QXX         QXY         QYY         QZZ       UP TO R
:VZZ003:            -5.38708    -0.35097    -6.62735    12.01443       2.500

:POS004: ATOM   -4 X,Y,Z = 0.19962 0.70227 0.46752  MULT= 8  ZZ= 35.000  Br        

       LMMAX 49

:CHA004: TOTAL VALENCE CHARGE INSIDE SPHERE   4 =  15.9447    (RMT=  2.5000 )
:PCS004: PARTIAL CHARGES SPHERE =  4 S,P,D,F,PX,PY,PZ,D-Z2,D-X2Y2,D-XY,D-XZ,D-YZ 
:QTL004: 1.7962 4.132010.0136 0.0024 1.3690 1.3658 1.3972 2.0027 2.0019 2.0073 2.0008 2.0009
        Q-s-low E-s-low   Q-p-low E-p-low   Q-d-low E-d-low   Q-f-low E-f-low
:EPL004:  1.7656 -0.9521    0.0059 -0.9164   10.0000 -4.3433    0.0006 -0.9302
        Q-s-hi  E-s-hi    Q-p-hi  E-p-hi    Q-d-hi  E-d-hi    Q-f-hi  E-f-hi 
:EPH004:  0.0307 -0.2507    4.1261 -0.0641    0.0136 -0.1223    0.0018 -0.1637

                      QXX         QXY         QYY         QZZ       UP TO R
:VZZ004:             2.28107    -8.57924     3.25791    -5.53898       2.500

:CHA  : TOTAL VALENCE CHARGE INSIDE UNIT CELL =     336.000000

:SUM  : SUM OF EIGENVALUES =        -803.078307206


        1.ATOM      Pb                   19 CORE STATES
:1S 001: 1S               -6465.876381607 Ry
:2S 001: 2S               -1154.922729391 Ry
:2PP001: 2P*              -1108.913341896 Ry
:2P 001: 2P                -947.954622919 Ry
:3S 001: 3S                -276.712199837 Ry
:3PP001: 3P*               -255.986893600 Ry
:3P 001: 3P                -220.073098169 Ry
:3DD001: 3D*               -186.081442374 Ry
:3D 001: 3D                -178.441129865 Ry
:4S 001: 4S                 -62.147036257 Ry
:4PP001: 4P*                -53.182223656 Ry
:4P 001: 4P                 -44.391550520 Ry
:4DD001: 4D*                -29.810739588 Ry
:4D 001: 4D                 -28.170550099 Ry
:5S 001: 5S                  -9.922079615 Ry
:5PP001: 5P*                 -6.866921348 Ry
:5P 001: 5P                  -5.225491115 Ry
:4FF001: 4F*                 -9.298131442 Ry
:4F 001: 4F                  -8.928401237 Ry

        2.ATOM      Cs                   12 CORE STATES
       CORE-FORCE in mRy/a.u. = |F|      Fx             Fy             Fz
:FCO002:   2.ATOM      8.574392248864     -8.519692300438     -0.966977529857      0.000000000000

:1S 002: 1S               -2628.599776284 Ry
:2S 002: 2S                -411.672872708 Ry
:2PP002: 2P*               -387.235691186 Ry
:2P 002: 2P                -361.343910309 Ry
:3S 002: 3S                 -85.122613656 Ry
:3PP002: 3P*                -74.919214397 Ry
:3P 002: 3P                 -69.957341245 Ry
:3DD002: 3D*                -52.038081708 Ry
:3D 002: 3D                 -50.984750025 Ry
:4S 002: 4S                 -15.588141835 Ry
:4PP002: 4P*                -11.927287462 Ry
:4P 002: 4P                 -10.915340838 Ry

        3.ATOM      Br                    7 CORE STATES
       CORE-FORCE in mRy/a.u. = |F|      Fx             Fy             Fz
:FCO003:   3.ATOM    106.252780591724     40.456720394961     98.249209454107      0.000000000000

:1S 003: 1S                -977.961572531 Ry
:2S 003: 2S                -126.758939054 Ry
:2PP003: 2P*               -114.088982284 Ry
:2P 003: 2P                -110.597600911 Ry
:3S 003: 3S                 -16.933099341 Ry
:3PP003: 3P*                -12.528560846 Ry
:3P 003: 3P                 -12.026361397 Ry

        4.ATOM      Br                    7 CORE STATES
       CORE-FORCE in mRy/a.u. = |F|      Fx             Fy             Fz
:FCO004:   4.ATOM     77.845483247897    -22.095972442507    -47.820859459400    -57.313634193644

:1S 004: 1S                -977.961632967 Ry
:2S 004: 2S                -126.759000950 Ry
:2PP004: 2P*               -114.089043962 Ry
:2P 004: 2P                -110.597662621 Ry
:3S 004: 3S                 -16.933161998 Ry
:3PP004: 3P*                -12.528623397 Ry
:3P 004: 3P                 -12.026423915 Ry
:CINT001 Core Integral Atom   1   67.995052
:CINT002 Core Integral Atom   2   35.999909
:CINT003 Core Integral Atom   3   17.999989
:CINT004 Core Integral Atom   4   17.999989

       DENSITY AT NUCLEUS
        JATOM        VALENCE       SEMI-CORE          CORE           TOTAL
:RTO001:   1     1947.808663        0.000000  9911352.888564  9913300.697228
:RTO002:   2      320.955173        0.000000   438170.993758   438491.948931
:RTO003:   3       73.572134        0.000000    45839.118217    45912.690352
:RTO004:   4       73.557919        0.000000    45839.118205    45912.676123
     
       CHARGES OF NEW CHARGE DENSITY
:NTO   : INTERSTITIAL CHARGE =    34.197239
:NPC   : PW Pseudocharge     =   103.262971
:NTO001: CHARGE SPHERE  1    =    79.315621
:NTO002: CHARGE SPHERE  2    =    52.296478
:NTO003: CHARGE SPHERE  3    =    33.944052
:NTO004: CHARGE SPHERE  4    =    33.944729

:NEC01: NUCLEAR AND ELECTRONIC CHARGE    968.00000   967.97968
     
       CHARGES OF OLD CHARGE DENSITY
:OTO   : INTERSTITIAL CHARGE =    36.554754
:OPC   : PW Pseudocharge     =   113.536492
:OTO001: CHARGE SPHERE  1    =    79.796963
:OTO002: CHARGE SPHERE  2    =    52.317397
:OTO003: CHARGE SPHERE  3    =    33.582715
:OTO004: CHARGE SPHERE  4    =    33.582123

:NEC02: NUCLEAR AND ELECTRONIC CHARGE    968.00000   968.00004
     
       CONVERGENCE TEST
:DTO001: DIFFERENCE IN SPHERE  1 =  0.2490739
:DTO002: DIFFERENCE IN SPHERE  2 =  0.0705880
:DTO003: DIFFERENCE IN SPHERE  3 =  0.1824020
:DTO004: DIFFERENCE IN SPHERE  4 =  0.1830913

:DIS  :  CHARGE DISTANCE       ( 0.2490739 for atom    1 spin 1)      0.1736493
 PW Mixed is         2247
 
******************************************************
* MULTISECANT MIXING VER9 RELEASE 10.4.0              *
* Slow Mode, cautious                                *
* Fixed density scale                                *
* Regularization       1.000E-04                     *
* Step Trust Radius    0.75000                       *
* Trust Upper Limit    2.000E+00                     *
* Max Number of Memory Steps   12                    *
******************************************************
 
:PWTMP   3.9481E+03  2.5000E+03  5.2571E+03
:PLANE:  PW TOTAL      8.9288 DISTAN   1.03E+00  1.16E+01 %
:CHARG:  CLM/ATOM   1115.9674 DISTAN   2.07E-01  1.86E-02 %
 
Step History
        DMIX         DMIXT        Red     Pred      Trust     Lambda    MagRel    MagAbs     Beta
  1   3.5000E-02   3.5000E-02 -1.00E+00  1.00E+00 -1.00E+01  1.00E+00  3.50E-02  3.50E-02  1.00E+00
  2   2.5000E-02   2.5000E-02 -1.00E+00  1.00E+00 -1.00E+01  1.00E+00  2.50E-02  8.99E-02  1.00E+00
:JACOBIANS    4.978E-01   6.953E-05
  
:TRUST:  Step 4.30E-02  Charge 7.50E-02 (e) CTO  4.43E-01 (e) PW  6.21E-01 (e)
:DIRM :  MEMORY  1/12 SCALE   1.000
:MIX  :   PRATT  REGULARIZATION:  1.00E-04 GREED: 0.04301  Expand 1.72  0.0430                
     
       CHARGES OF MIXED CHARGE DENSITY
:CTO   : INTERSTITIAL CHARGE =    36.538139
:CPC   : PW Pseudocharge     =   108.793592
:CTO001: CHARGE SPHERE  1    =    79.793601
:CTO002: CHARGE SPHERE  2    =    52.317241
:CTO003: CHARGE SPHERE  3    =    33.585263
:CTO004: CHARGE SPHERE  4    =    33.584680

:NEC03: NUCLEAR AND ELECTRONIC CHARGE    968.00000   968.00000

PW CHANGE     H    K    L      Current       Change    Residue
:PTO001:      0    0    0  2.76449897E-02 -9.053E-04 -2.387E-03
:PTO006:     -1    0   -1 -2.44473888E-03  7.164E-05  1.244E-04
:PTO007:      0    0   -2  3.02872661E-03 -5.116E-04 -1.410E-03
:PTO008:     -1   -1    0  5.68238335E-03 -1.057E-03 -2.772E-03
:PTO009:     -1   -1   -1 -1.05762755E-02  4.130E-04  6.352E-04
:PTO012:      0   -2    0  7.19522601E-03 -8.109E-04 -1.672E-03
:PTO013:     -1   -1   -2  2.27413355E-02 -3.074E-03 -6.847E-03
:PTO014:     -2    0    0  7.13198630E-03 -8.249E-04 -1.680E-03
:PTO015:      0   -2   -1  5.81112759E-03 -2.973E-04 -6.260E-04
:PTO018:     -1   -2    0 -1.06680757E-02  3.319E-04  3.155E-04
:PTO019:     -2   -1    0  1.17280296E-02 -3.734E-04 -3.629E-04
:PTO021:     -1   -2   -1  1.22308625E-02 -3.962E-04 -3.910E-04

:ENE  : ********** TOTAL ENERGY IN Ry =      -292313.12525725

       TOTAL FORCE IN mRy/a.u. = |F|     Fx             Fy             Fz     with/without FOR in case.in2
:FOR001:   1.ATOM          0.000          0.000          0.000          0.000 partial forces
:FOR002:   2.ATOM          4.206          4.191          0.352          0.000 partial forces
:FOR003:   3.ATOM         99.473        -40.641        -90.792          0.000 partial forces
:FOR004:   4.ATOM         75.909         23.136         46.623         55.256 partial forces
       TOTAL FORCE WITH RESPECT TO GLOBAL CARTESIAN COORDINATES:
:FCA001:   1.ATOM                         0.000          0.000          0.000 partial forces
:FCA002:   2.ATOM                         4.191          0.352          0.000 partial forces
:FCA003:   3.ATOM                       -40.641        -90.792          0.000 partial forces
:FCA004:   4.ATOM                        23.136         46.623         55.256 partial forces
       TOTAL FORCE WITH RESPECT TO THE GLOBAL COORDINATE SYSTEM:
:FGL001:   1.ATOM                 0.000000000     0.000000000     0.000000000 partial forces
:FGL002:   2.ATOM                 4.191007307     0.352346445     0.000000000 partial forces
:FGL003:   3.ATOM               -40.641099249   -90.791837324     0.000000000 partial forces
:FGL004:   4.ATOM                23.136423387    46.623025377    55.255757304 partial forces
 Flat Integration
 New Mode for Coulomb Integral
 Consistent 3/8+Simpson combinations
 Extension of core to zero
 LDM version in phi
 Fifth-order quadrature in outwin


            ---------
:ITE003:  3. ITERATION
            ---------

:NATO :    4 INDEPENDENT AND   20 TOTAL ATOMS IN UNITCELL
       SUBSTANCE: blebleble                                                   

       LATTICE                      = P   
:POT  : POTENTIAL OPTION EX_PBE EC_PBE VX_PBE VC_PBE
:LAT  : LATTICE CONSTANTS= 15.19415 15.66734 22.08372    1.571    1.571    1.571
:VOL  : UNIT CELL VOLUME =    5257.07306
       MODE OF CALCULATION IS       = RELA
       NON-SPINPOLARIZED CALCULATION
:IFFT  : FFT-parameters:  120  120  180 Factor: 2.00


   CONVERGENCE PARAMETER FOR PSEUDOCHARGE: NCON=  9
   MAXIMAL VALUE OF RMT(JATOM)*ABSK(NKK) : RK  =29.99804


:VKCOUL :  VK-COUL convergence: 0.224E-08
       ATOMNUMBER=  1 Pb         VCOUL-ZERO =  0.92297E-01
:EFG001:                        EFG         =     0.03604   *10**21  V / m**2
                               V20  TOT/SRF=    -0.02117     0.00188
                               V22  TOT/SRF=     0.00753    -0.00071
                               V22M TOT/SRF=     0.02040    -0.00082
                               V21  TOT/SRF=    -0.00895     0.00315
                               V21M TOT/SRF=    -0.00676    -0.00510

              0.01975    0.02040   -0.00895        0.03604    0.00000    0.00000
              0.02040    0.00469   -0.00676        0.00000   -0.00951    0.00000
             -0.00895   -0.00676   -0.02444        0.00000    0.00000   -0.02653

         MAIN DIRECTIONS OF THE EFG   1.0000 -0.7060  0.1376
                                      0.6993  1.0000  0.1267
                                     -0.2262 -0.0296  1.0000
:ANG001:  ANGLE WITH OLD X-AXIS =        35.7

:ETA001:                         ASYMM. ETA =     0.47217


       ATOMNUMBER=  2 Cs         VCOUL-ZERO = -0.59734E-01
:EFG002:                        EFG         =     0.05846   *10**21  V / m**2
                               V20  TOT/SRF=    -0.01225    -0.00045
                               V22  TOT/SRF=     0.01030    -0.00050
                               V22M TOT/SRF=     0.05034    -0.00101
                               V21  TOT/SRF=     0.00000     0.00000
                               V21M TOT/SRF=     0.00000     0.00000

              0.01737    0.05034    0.00000        0.05846    0.00000    0.00000
              0.05034   -0.00322    0.00000        0.00000   -0.04431    0.00000
              0.00000    0.00000   -0.01415        0.00000    0.00000   -0.01415

         MAIN DIRECTIONS OF THE EFG   1.0000 -0.8161  0.0000
                                      0.8161  1.0000  0.0000
                                      0.0000  0.0000  1.0000
:ANG002:  ANGLE WITH OLD X-AXIS =        39.2

:ETA002:                         ASYMM. ETA =     0.51595


       ATOMNUMBER=  3 Br         VCOUL-ZERO =  0.27246E+00
:EFG003:                        EFG         =     0.39285   *10**21  V / m**2
                               V20  TOT/SRF=     0.34022     0.06382
                               V22  TOT/SRF=     0.02354     0.00572
                               V22M TOT/SRF=    -0.02188    -0.01135
                               V21  TOT/SRF=     0.00000     0.00000
                               V21M TOT/SRF=     0.00000     0.00000

             -0.17289   -0.02188    0.00000       -0.16429    0.00000    0.00000
             -0.02188   -0.21996    0.00000        0.00000   -0.22856    0.00000
              0.00000    0.00000    0.39285        0.00000    0.00000    0.39285

         MAIN DIRECTIONS OF THE EFG   1.0000  0.3930  0.0000
                                     -0.3930  1.0000  0.0000
                                      0.0000  0.0000  1.0000
:ANG003:  ANGLE WITH OLD X-AXIS =        21.5

:ETA003:                         ASYMM. ETA =     0.16359


       ATOMNUMBER=  4 Br         VCOUL-ZERO =  0.27251E+00
:EFG004:                        EFG         =     0.37153   *10**21  V / m**2
                               V20  TOT/SRF=    -0.15384    -0.02760
                               V22  TOT/SRF=    -0.01839    -0.00450
                               V22M TOT/SRF=    -0.28082    -0.05252
                               V21  TOT/SRF=    -0.03151    -0.00408
                               V21M TOT/SRF=     0.00694     0.00787

              0.07043   -0.28082   -0.03151        0.37153    0.00000    0.00000
             -0.28082    0.10721    0.00694        0.00000   -0.20524    0.00000
             -0.03151    0.00694   -0.17764        0.00000    0.00000   -0.16629

         MAIN DIRECTIONS OF THE EFG  -0.9396  1.0000 -0.4726
                                      1.0000  0.8783 -0.5106
                                      0.0665  0.9211  1.0000
:ANG004:  ANGLE WITH OLD X-AXIS =       130.3

:ETA004:                         ASYMM. ETA =     0.10484


     HELLMANN-FEYNMAN-FORCE IN mRy/a.u. = |F|  Fx       Fy             Fz
:FHF001:   1.ATOM      0.000000000000      0.000000000000      0.000000000000      0.000000000000

     HELLMANN-FEYNMAN-FORCE IN mRy/a.u. = |F|  Fx       Fy             Fz
:FHF002:   2.ATOM     12.626915697492     12.494808745712      1.821744888739      0.000000000000

     HELLMANN-FEYNMAN-FORCE IN mRy/a.u. = |F|  Fx       Fy             Fz
:FHF003:   3.ATOM    202.109711208331    -77.987257007773   -186.457295671472      0.000000000000

     HELLMANN-FEYNMAN-FORCE IN mRy/a.u. = |F|  Fx       Fy             Fz
:FHF004:   4.ATOM    148.169514983924     42.462813477583     90.916655473086    109.019614747657

:FIT001: LUSE= 13 SIGMA OF V-XC FIT FOR ATOM  1  0.7734007E-03
:FIT001: LUSE= 13 SIGMA OF V-XC FIT FOR ATOM  1  0.7734007E-03
:FIT002: LUSE= 13 SIGMA OF V-XC FIT FOR ATOM  2  0.1723432E-04
:FIT002: LUSE= 13 SIGMA OF V-XC FIT FOR ATOM  2  0.1723432E-04
:FIT003: LUSE= 13 SIGMA OF V-XC FIT FOR ATOM  3  0.7129127E-03
:FIT003: LUSE= 13 SIGMA OF V-XC FIT FOR ATOM  3  0.7129127E-03
:FIT004: LUSE= 13 SIGMA OF V-XC FIT FOR ATOM  4  0.6337926E-03
:FIT004: LUSE= 13 SIGMA OF V-XC FIT FOR ATOM  4  0.6337926E-03
:DEN  : DENSITY INTEGRAL  =       -114050.65950561   (Ry)
       ELS_POTENTIAL_AT Z=0 and Z=0.5:  -0.53566  -0.53566
       ELS_POTENTIAL_AT Y=0 and Y=0.5:  -0.44805  -0.44805
:VZERO:v0,v0c,v0x  -1.24771  -0.53566  -0.71205 v5,v5c,v5x  -1.24771  -0.53566  -0.71205
:VZERY:v0,v0c,v0x  -1.07991  -0.44805  -0.63187 v5,v5c,v5x  -1.07991  -0.44805  -0.63187
:VZERX:v0,v0c,v0x  -1.07237  -0.44699  -0.62538 v5,v5c,v5x  -1.07237  -0.44699  -0.62538
:LMAX-WF:   10   Non-Spherical LMAX:   4

          ATOMIC SPHERE DEPENDENT PARAMETERS FOR ATOM  Pb        
:e__0001: OVERALL ENERGY PARAMETER IS    0.0000
          OVERALL BASIS SET ON ATOM IS LAPW
:E2_0001: E( 2)=    0.4000
             APW+lo
:E2_0001: E( 2)=   -0.9573   E(BOTTOM)=   -1.194   E(TOP)=   -0.720  2  3   127
             LOCAL ORBITAL
:E0_0001: E( 0)=    0.0000
             APW+lo
:E1_0001: E( 1)=    0.0000
             APW+lo

          ATOMIC SPHERE DEPENDENT PARAMETERS FOR ATOM  Cs        
:e__0002: OVERALL ENERGY PARAMETER IS    0.0000
          OVERALL BASIS SET ON ATOM IS LAPW
:E2_0002: E( 2)=    0.0000
             APW+lo
:E2_0002: E( 2)=   -4.8680   E(BOTTOM)=   -4.880   E(TOP)=   -4.856  1  2   117
             LOCAL ORBITAL
:E0_0002: E( 0)=    0.4000
             APW+lo
:E0_0002: E( 0)=   -1.3766   E(BOTTOM)=   -2.059   E(TOP)=   -0.694  4  5   168
             LOCAL ORBITAL
:E1_0002: E( 1)=    0.4000
             APW+lo
:E1_0002: E( 1)=   -0.2037   E(BOTTOM)=   -1.176   E(TOP)=    0.768  3  4   197
             LOCAL ORBITAL

          ATOMIC SPHERE DEPENDENT PARAMETERS FOR ATOM  Br        
:e__0003: OVERALL ENERGY PARAMETER IS    0.0000
          OVERALL BASIS SET ON ATOM IS LAPW
:E2_0003: E( 2)=    0.0000
             APW+lo
:E2_0003: E( 2)=   -4.3451   E(BOTTOM)=   -4.348   E(TOP)=   -4.342  1  1   122
             LOCAL ORBITAL
:E0_0003: E( 0)=    0.4000
             APW+lo
:E0_0003: E( 0)=   -0.9523   E(BOTTOM)=   -1.518   E(TOP)=   -0.386  3  4   156
             LOCAL ORBITAL
:E1_0003: E( 1)=    0.0000
             APW+lo

          ATOMIC SPHERE DEPENDENT PARAMETERS FOR ATOM  Br        
:e__0004: OVERALL ENERGY PARAMETER IS    0.0000
          OVERALL BASIS SET ON ATOM IS LAPW
:E2_0004: E( 2)=    0.0000
             APW+lo
:E2_0004: E( 2)=   -4.3451   E(BOTTOM)=   -4.348   E(TOP)=   -4.342  1  1   120
             LOCAL ORBITAL
:E0_0004: E( 0)=    0.4000
             APW+lo
:E0_0004: E( 0)=   -0.9523   E(BOTTOM)=   -1.518   E(TOP)=   -0.386  3  4   151
             LOCAL ORBITAL
:E1_0004: E( 1)=    0.0000
             APW+lo

       K=   0.04545   0.04545   0.07143            1
:RKM  : MATRIX SIZE  2239LOs: 308  RKM= 7.00  WEIGHT= 8.00  PGR:    
       EIGENVALUES ARE:
:EIG00001:      -4.8652398   -4.8652346   -4.8652204   -4.8652183   -4.8652170
:EIG00006:      -4.8652115   -4.8652084   -4.8651997   -4.8651960   -4.8651935
:EIG00011:      -4.8651909   -4.8651894   -4.8651817   -4.8651679   -4.8651603
:EIG00016:      -4.8651504   -4.8651455   -4.8651333   -4.8651286   -4.8651127
:EIG00021:      -4.3449808   -4.3449756   -4.3449734   -4.3449672   -4.3449550
:EIG00026:      -4.3449493   -4.3449454   -4.3449421   -4.3449392   -4.3449375
:EIG00031:      -4.3449332   -4.3449274   -4.3446868   -4.3446740   -4.3446712
:EIG00036:      -4.3446697   -4.3446210   -4.3446135   -4.3446113   -4.3446058
:EIG00041:      -4.3446049   -4.3446025   -4.3445964   -4.3445851   -4.3445612
:EIG00046:      -4.3445553   -4.3445434   -4.3445367   -4.3445299   -4.3445281
 
:EIG00051:      -4.3445209   -4.3445175   -4.3443943   -4.3443888   -4.3443842
:EIG00056:      -4.3443791   -4.3439523   -4.3439520   -4.3439434   -4.3439431
:EIG00061:      -4.3439361   -4.3439329   -4.3439294   -4.3439241   -4.3439133
:EIG00066:      -4.3439033   -4.3438973   -4.3438952   -4.3438920   -4.3438910
:EIG00071:      -4.3438896   -4.3438820   -4.3438809   -4.3438803   -4.3438790
:EIG00076:      -4.3438752   -4.3438247   -4.3438237   -4.3438192   -4.3438127
:EIG00081:      -1.3827088   -1.3825472   -1.3823653   -1.3822625   -0.9782473
:EIG00086:      -0.9779912   -0.9778961   -0.9767156   -0.9752296   -0.9720501
:EIG00091:      -0.9540700   -0.9538649   -0.9537323   -0.9533698   -0.9528800
:EIG00096:      -0.9524314   -0.9235626   -0.9233428   -0.9227709   -0.9170886
 
:EIG00101:      -0.9169542   -0.9168897   -0.9168167   -0.9167403   -0.9166813
:EIG00106:      -0.9162990   -0.9162759   -0.9161173   -0.9160741   -0.9159262
:EIG00111:      -0.9157734   -0.9110741   -0.8979291   -0.8855803   -0.8853332
:EIG00116:      -0.8847993   -0.4245110   -0.4234851   -0.4221413   -0.4215928
:EIG00121:      -0.4199626   -0.4195313   -0.4193201   -0.4177972   -0.4177605
:EIG00126:      -0.4175224   -0.4171293   -0.4163215   -0.4153683   -0.3807821
:EIG00131:      -0.3406805   -0.2804849   -0.1567168   -0.1559607   -0.1530176
:EIG00136:      -0.1487798   -0.1469270   -0.1382622   -0.1049724   -0.0873842
:EIG00141:      -0.0843045   -0.0828427   -0.0814894   -0.0743485   -0.0655208
:EIG00146:      -0.0596176   -0.0574165   -0.0547984   -0.0521731   -0.0497695
 
:EIG00151:      -0.0484447   -0.0464101   -0.0459778   -0.0447318   -0.0381661
:EIG00156:      -0.0339639   -0.0336094   -0.0332260   -0.0308226   -0.0293746
:EIG00161:      -0.0281340   -0.0255590   -0.0240714   -0.0237049   -0.0063982
:EIG00166:       0.0468841    0.0948823    0.1478892    0.3264914    0.3301325
:EIG00171:       0.3341535    0.3588317    0.3720253    0.3898243    0.3954055
:EIG00176:       0.4747724    0.4806210    0.4874343    0.4925437    0.5198930
:EIG00181:       0.5227153    0.5273076    0.5346084    0.5390157    0.5395674
:EIG00186:       0.5432699    0.5487583    0.5501252    0.5640056    0.5682396
:EIG00191:       0.5695554    0.5767710    0.5895013    0.5927893    0.5971442
:EIG00196:       0.6028091    0.6042727    0.6094601    0.6121594    0.6219130
 
:EIG00201:       0.6273353    0.6315033    0.6402306    0.6484312    0.6506023
:EIG00206:       0.6673634    0.6737599    0.6827094    0.6895955    0.6944668
:EIG00211:       0.7075730    0.7241912    0.7344764    0.7420252    0.7492714
:EIG00216:       0.7518502    0.7544295    0.7597459    0.7691643    0.7789304
:EIG00221:       0.7801800    0.7846169    0.7874490    0.8250567    0.8442177
:EIG00226:       0.8496300    0.8521539    0.8572185    0.8584475    0.8613549
:EIG00231:       0.8648635    0.8749524    0.8889231    0.8910968    0.9021250
:EIG00236:       0.9176373    0.9297921    0.9372576    0.9452746    0.9498774
:EIG00241:       0.9518308    0.9612009    0.9726747    0.9772270    0.9884694
:EIG00246:       0.9903284    1.0011425    1.0061154    1.0076582    1.0112168
 
:EIG00251:       1.0184428    1.0201519    1.0343399    1.0503127    1.0584724
:EIG00256:       1.0656403    1.0730872    1.0795659    1.0818374    1.0854267
:EIG00261:       1.0886378    1.0947671    1.0974265    1.0999823    1.1041409
:EIG00266:       1.1083776    1.1132070    1.1200352    1.1209622    1.1278353
:EIG00271:       1.1303522    1.1360805    1.1426011    1.1461159    1.1499527
:EIG00276:       1.1565147    1.1596965    1.1644914    1.1665485    1.1672919
:EIG00281:       1.1740636    1.1779613    1.1798242    1.1835839    1.1885432
:EIG00286:       1.1891922    1.1953249    1.1997215    1.2122190    1.2168539
:EIG00291:       1.2204512    1.2241949    1.2274200    1.2320360    1.2363927
:EIG00296:       1.2377930    1.2461124    1.2472914    1.2549480    1.2563443
 
:EIG00301:       1.2651596    1.2707767    1.2782419    1.2806646    1.2841575
:EIG00306:       1.2930306    1.3046981    1.3099010    1.3126173    1.3172776
:EIG00311:       1.3192200    1.3353412    1.3373611    1.3416727    1.3525957
:EIG00316:       1.3641146    1.3682349    1.3703326    1.3770743    1.3853026
:EIG00321:       1.3863660    1.3934445    1.4030204    1.4100154    1.4117705
:EIG00326:       1.4238220    1.4265943    1.4328586    1.4351055    1.4390535
:EIG00331:       1.4440532    1.4449851    1.4495393    1.4578453    1.4648751
:EIG00336:       1.4678167    1.4714204    1.4740390    1.4820525    1.4855266
:EIG00341:       1.4885991    1.4959555    1.5029418    1.5031844    1.5066908
:EIG00346:       1.5152426    1.5192557    1.5213968    1.5255670    1.5273175
 
:EIG00351:       1.5316367    1.5394653    1.5476023    1.5489404    1.5507197
:EIG00356:       1.5589983    1.5662905    1.5737229    1.5798386    1.5845498
:EIG00361:       1.5854391    1.5962497    1.6099629    1.6132676    1.6256525
:EIG00366:       1.6292331    1.6368025    1.6409366    1.6455536    1.6542457
:EIG00371:       1.6572875    1.6619471    1.6641361    1.6732409    1.6768638
:EIG00376:       1.6798624    1.6819952    1.6852680    1.6929472
       ********************************************************

:KPT   :      NUMBER OF K-POINTS:   144
       Insulator, EF-inconsistency corrected
:GAP (global)   :  0.178602 Ry =     2.430 eV (accurate value if proper k-mesh)
         Bandranges (emin - emax) and occupancy:
:BAN00158: 158   -0.042297   -0.030969  2.00000000
:BAN00159: 159   -0.039420   -0.030656  2.00000000
:BAN00160: 160   -0.039420   -0.029375  2.00000000
:BAN00161: 161   -0.035378   -0.027302  2.00000000
:BAN00162: 162   -0.034446   -0.025153  2.00000000
:BAN00163: 163   -0.029252   -0.019557  2.00000000
:BAN00164: 164   -0.029252   -0.019557  2.00000000
:BAN00165: 165   -0.006398    0.057556  2.00000000
:BAN00166: 166    0.002968    0.059323  2.00000000
:BAN00167: 167    0.030966    0.110177  2.00000000
:BAN00168: 168    0.030966    0.147889  2.00000000
:BAN00169: 169    0.326491    0.430074  0.00000000
:BAN00170: 170    0.330133    0.430074  0.00000000
:BAN00171: 171    0.334153    0.436144  0.00000000
:BAN00172: 172    0.351919    0.436144  0.00000000
:BAN00173: 173    0.368255    0.453555  0.00000000
        Energy to separate low and high energystates:   -0.47451


:NOE  : NUMBER OF ELECTRONS          =  336.000

:FER  : F E R M I - ENERGY(TETRAH.M.)=   0.1478891903
:GMA  : POTENTIAL AND CHARGE CUT-OFF  12.00 Ry**.5

:POS001: ATOM   -1 X,Y,Z = 0.50000 0.50000 0.50000  MULT= 4  ZZ= 82.000  Pb        

       LMMAX 28
       LM=   0 0  2 0  2 1 -2 1  2 2 -2 2  4 0  4 1 -4 1  4 2 -4 2  4 3 -4 3  4 4 -4 4  6 0  6 1
        -6 1  6 2 -6 2  6 3 -6 3  6 4 -6 4  6 5 -6 5  6 6 -6 6

:CHA001: TOTAL VALENCE CHARGE INSIDE SPHERE   1 =  11.3233    (RMT=  2.5000 )
:PCS001: PARTIAL CHARGES SPHERE =  1 S,P,D,F,PX,PY,PZ,D-Z2,D-X2Y2,D-XY,D-XZ,D-YZ 
:QTL001: 1.3326 0.2711 9.7047 0.0126 0.0895 0.0902 0.0914 1.9488 1.9370 1.9474 1.9361 1.9354
        Q-s-low E-s-low   Q-p-low E-p-low   Q-d-low E-d-low   Q-f-low E-f-low
:EPL001:  0.0185 -0.9602    0.0089 -0.9517    9.6299 -0.9184    0.0010 -0.9616
        Q-s-hi  E-s-hi    Q-p-hi  E-p-hi    Q-d-hi  E-d-hi    Q-f-hi  E-f-hi 
:EPH001:  1.3141 -0.2348    0.2622 -0.0991    0.0748 -0.0635    0.0115 -0.0651

                      QXX         QXY         QYY         QZZ       UP TO R
:VZZ001:             0.65278     0.67012     0.14048    -0.79327       2.500

:POS002: ATOM   -2 X,Y,Z = 0.48491 0.94655 0.25000  MULT= 4  ZZ= 55.000  Cs        

       LMMAX 28
       LM=   0 0  1 1 -1 1  2 0  2 2 -2 2  3 1 -3 1  3 3 -3 3  4 0  4 2 -4 2  4 4 -4 4  5 1 -5 1
         5 3 -5 3  5 5 -5 5  6 0  6 2 -6 2  6 4 -6 4  6 6 -6 6

:CHA002: TOTAL VALENCE CHARGE INSIDE SPHERE   2 =  16.2972    (RMT=  2.5000 )
:PCS002: PARTIAL CHARGES SPHERE =  2 S,P,D,F,PX,PY,PZ,D-Z2,D-X2Y2,D-XY,D-XZ,D-YZ 
:QTL002: 1.7962 4.489410.0095 0.0018 1.4957 1.4966 1.4971 2.0014 2.0023 2.0011 2.0020 2.0027
        Q-s-low E-s-low   Q-p-low E-p-low   Q-d-low E-d-low   Q-f-low E-f-low
:EPL002:  1.7867 -1.3821    0.0022 -0.9511    9.9946 -4.8651    0.0001 -1.0294
        Q-s-hi  E-s-hi    Q-p-hi  E-p-hi    Q-d-hi  E-d-hi    Q-f-hi  E-f-hi 
:EPH002:  0.0095 -0.0831    4.4872 -0.4067    0.0149 -0.0580    0.0017 -0.0510

                      QXX         QXY         QYY         QZZ       UP TO R
:VZZ002:             0.56065     1.62507    -0.11546    -0.44519       2.500

:POS003: ATOM   -3 X,Y,Z = 0.56000 0.50750 0.25000  MULT= 4  ZZ= 35.000  Br        

       LMMAX 28
       LM=   0 0  1 1 -1 1  2 0  2 2 -2 2  3 1 -3 1  3 3 -3 3  4 0  4 2 -4 2  4 4 -4 4  5 1 -5 1
         5 3 -5 3  5 5 -5 5  6 0  6 2 -6 2  6 4 -6 4  6 6 -6 6

:CHA003: TOTAL VALENCE CHARGE INSIDE SPHERE   3 =  15.9413    (RMT=  2.5000 )
:PCS003: PARTIAL CHARGES SPHERE =  3 S,P,D,F,PX,PY,PZ,D-Z2,D-X2Y2,D-XY,D-XZ,D-YZ 
:QTL003: 1.7963 4.128110.0140 0.0024 1.3955 1.3995 1.3330 2.0109 2.0004 2.0002 2.0017 2.0010
        Q-s-low E-s-low   Q-p-low E-p-low   Q-d-low E-d-low   Q-f-low E-f-low
:EPL003:  1.7648 -0.9533    0.0061 -0.9215   10.0001 -4.3438    0.0006 -0.9317
        Q-s-hi  E-s-hi    Q-p-hi  E-p-hi    Q-d-hi  E-d-hi    Q-f-hi  E-f-hi 
:EPH003:  0.0315 -0.2533    4.1220 -0.0654    0.0140 -0.1224    0.0018 -0.1718

                      QXX         QXY         QYY         QZZ       UP TO R
:VZZ003:            -5.44098    -0.34442    -6.68000    12.12099       2.500

:POS004: ATOM   -4 X,Y,Z = 0.19962 0.70227 0.46752  MULT= 8  ZZ= 35.000  Br        

       LMMAX 49

:CHA004: TOTAL VALENCE CHARGE INSIDE SPHERE   4 =  15.9420    (RMT=  2.5000 )
:PCS004: PARTIAL CHARGES SPHERE =  4 S,P,D,F,PX,PY,PZ,D-Z2,D-X2Y2,D-XY,D-XZ,D-YZ 
:QTL004: 1.7961 4.129410.0136 0.0024 1.3680 1.3648 1.3966 2.0027 2.0019 2.0073 2.0008 2.0009
        Q-s-low E-s-low   Q-p-low E-p-low   Q-d-low E-d-low   Q-f-low E-f-low
:EPL004:  1.7653 -0.9532    0.0059 -0.9205   10.0000 -4.3438    0.0006 -0.9343
        Q-s-hi  E-s-hi    Q-p-hi  E-p-hi    Q-d-hi  E-d-hi    Q-f-hi  E-f-hi 
:EPH004:  0.0308 -0.2538    4.1236 -0.0653    0.0136 -0.1249    0.0018 -0.1664

                      QXX         QXY         QYY         QZZ       UP TO R
:VZZ004:             2.30683    -8.65562     3.28760    -5.59443       2.500

:CHA  : TOTAL VALENCE CHARGE INSIDE UNIT CELL =     336.000000

:SUM  : SUM OF EIGENVALUES =        -803.615915441


        1.ATOM      Pb                   19 CORE STATES
:1S 001: 1S               -6465.881675982 Ry
:2S 001: 2S               -1154.927895678 Ry
:2PP001: 2P*              -1108.918535468 Ry
:2P 001: 2P                -947.959796234 Ry
:3S 001: 3S                -276.717210628 Ry
:3PP001: 3P*               -255.991915832 Ry
:3P 001: 3P                -220.078102989 Ry
:3DD001: 3D*               -186.086470463 Ry
:3D 001: 3D                -178.446152008 Ry
:4S 001: 4S                 -62.151883678 Ry
:4PP001: 4P*                -53.187070989 Ry
:4P 001: 4P                 -44.396376238 Ry
:4DD001: 4D*                -29.815562249 Ry
:4D 001: 4D                 -28.175365712 Ry
:5S 001: 5S                  -9.926651542 Ry
:5PP001: 5P*                 -6.871461599 Ry
:5P 001: 5P                  -5.229980130 Ry
:4FF001: 4F*                 -9.302934373 Ry
:4F 001: 4F                  -8.933200250 Ry

        2.ATOM      Cs                   12 CORE STATES
       CORE-FORCE in mRy/a.u. = |F|      Fx             Fy             Fz
:FCO002:   2.ATOM      8.479938592642     -8.380974108721     -1.291755210527      0.000000000000

:1S 002: 1S               -2628.602400346 Ry
:2S 002: 2S                -411.675394502 Ry
:2PP002: 2P*               -387.238232926 Ry
:2P 002: 2P                -361.346445414 Ry
:3S 002: 3S                 -85.125001493 Ry
:3PP002: 3P*                -74.921608112 Ry
:3P 002: 3P                 -69.959729380 Ry
:3DD002: 3D*                -52.040483780 Ry
:3D 002: 3D                 -50.987150035 Ry
:4S 002: 4S                 -15.590421344 Ry
:4PP002: 4P*                -11.929563259 Ry
[...]
:EIG00141:      -0.0564005   -0.0550759   -0.0539314   -0.0484515   -0.0397350
:EIG00146:      -0.0293783   -0.0277228   -0.0264525   -0.0248109   -0.0225272
 
:EIG00151:      -0.0215952   -0.0184646   -0.0159931   -0.0143806   -0.0137940
:EIG00156:      -0.0129922   -0.0122857   -0.0057065   -0.0000386    0.0014381
:EIG00161:       0.0031826    0.0073512    0.0107768    0.0130888    0.0247626
:EIG00166:       0.0408464    0.0784286    0.1237988    0.2680970    0.2704333
:EIG00171:       0.2784278    0.2991725    0.3122301    0.3287875    0.4081519
:EIG00176:       0.4841461    0.4875561    0.4919069    0.4965855    0.5021665
:EIG00181:       0.5029836    0.5065786    0.5204212    0.5270578    0.5347818
:EIG00186:       0.5391367    0.5437084    0.5444428    0.5507424    0.5522191
:EIG00191:       0.5556633    0.5572322    0.5657124    0.5777780    0.5839871
:EIG00196:       0.5867203    0.6068428    0.6097578    0.6141298    0.6218003
 
:EIG00201:       0.6246362    0.6291850    0.6352825    0.6470641    0.6490120
:EIG00206:       0.6686197    0.6749847    0.6778511    0.6897672    0.6987883
:EIG00211:       0.7105954    0.7200431    0.7347923    0.7368768    0.7476273
:EIG00216:       0.7497606    0.7560875    0.7668945    0.7725869    0.7856222
:EIG00221:       0.7865906    0.7930546    0.7940853    0.8181518    0.8384988
:EIG00226:       0.8432957    0.8490937    0.8525807    0.8573412    0.8591545
:EIG00231:       0.8651153    0.8728748    0.8762455    0.8882940    0.9054874
:EIG00236:       0.9171148    0.9235853    0.9320024    0.9424433    0.9464375
:EIG00241:       0.9520840    0.9550651    0.9611914    0.9756856    0.9815542
:EIG00246:       0.9831366    0.9867222    1.0016447    1.0089248    1.0104081
 
:EIG00251:       1.0133058    1.0146738    1.0312005    1.0455191    1.0531242
:EIG00256:       1.0563882    1.0681325    1.0753015    1.0770385    1.0810036
:EIG00261:       1.0832641    1.0924397    1.0969784    1.0984910    1.1034332
:EIG00266:       1.1086196    1.1122776    1.1161011    1.1193040    1.1258905
:EIG00271:       1.1283926    1.1319100    1.1425323    1.1440341    1.1484043
:EIG00276:       1.1536331    1.1574600    1.1596675    1.1620664    1.1656112
:EIG00281:       1.1707163    1.1760069    1.1767236    1.1787715    1.1816059
:EIG00286:       1.1867535    1.1912683    1.1976992    1.2091271    1.2138960
:EIG00291:       1.2168457    1.2191107    1.2233977    1.2301828    1.2340334
:EIG00296:       1.2390562    1.2430149    1.2439470    1.2519658    1.2565163
 
:EIG00301:       1.2629961    1.2656964    1.2711133    1.2767430    1.2800326
:EIG00306:       1.2867216    1.2970361    1.3013176    1.3033554    1.3066159
:EIG00311:       1.3147406    1.3288586    1.3302576    1.3327678    1.3433560
:EIG00316:       1.3520801    1.3615488    1.3651778    1.3697500    1.3801845
:EIG00321:       1.3838200    1.3882445    1.3922627    1.3994269    1.4015122
:EIG00326:       1.4134775    1.4180100    1.4208977    1.4280892    1.4298651
:EIG00331:       1.4349089    1.4396327    1.4436416    1.4454357    1.4550478
:EIG00336:       1.4617485    1.4683090    1.4751914    1.4781686    1.4819325
:EIG00341:       1.4848440    1.4857649    1.4869554    1.5001676    1.5023638
:EIG00346:       1.5092705    1.5156454    1.5221802    1.5244966    1.5258975
 
:EIG00351:       1.5296784    1.5360733    1.5426509    1.5434175    1.5503410
:EIG00356:       1.5579422    1.5614027    1.5659935    1.5760106    1.5778660
:EIG00361:       1.5838844    1.5880363    1.6077903    1.6125479    1.6180446
:EIG00366:       1.6229933
       ********************************************************

:KPT   :      NUMBER OF K-POINTS:   144
       Insulator, EF-inconsistency corrected
:GAP (global)   :  0.144298 Ry =     1.963 eV (accurate value if proper k-mesh)
         Bandranges (emin - emax) and occupancy:
:BAN00158: 158   -0.011660    0.001217  2.00000000
:BAN00159: 159   -0.010084    0.001926  2.00000000
:BAN00160: 160   -0.010084    0.001926  2.00000000
:BAN00161: 161   -0.008352    0.005830  2.00000000
:BAN00162: 162   -0.008352    0.007351  2.00000000
:BAN00163: 163    0.003607    0.013594  2.00000000
:BAN00164: 164    0.003607    0.013594  2.00000000
:BAN00165: 165    0.017341    0.045552  2.00000000
:BAN00166: 166    0.018796    0.048216  2.00000000
:BAN00167: 167    0.023099    0.088639  2.00000000
:BAN00168: 168    0.023099    0.123799  2.00000000
:BAN00169: 169    0.268097    0.389279  0.00000000
:BAN00170: 170    0.270433    0.389279  0.00000000
:BAN00171: 171    0.278428    0.395765  0.00000000
:BAN00172: 172    0.295003    0.395765  0.00000000
:BAN00173: 173    0.308861    0.408691  0.00000000
        Energy to separate low and high energystates:   -0.21297


:NOE  : NUMBER OF ELECTRONS          =  336.000

:FER  : F E R M I - ENERGY(TETRAH.M.)=   0.1237988283
:GMA  : POTENTIAL AND CHARGE CUT-OFF  12.00 Ry**.5

:POS001: ATOM   -1 X,Y,Z = 0.50000 0.50000 0.50000  MULT= 4  ZZ= 82.000  Pb        

       LMMAX 28
       LM=   0 0  2 0  2 1 -2 1  2 2 -2 2  4 0  4 1 -4 1  4 2 -4 2  4 3 -4 3  4 4 -4 4  6 0  6 1
        -6 1  6 2 -6 2  6 3 -6 3  6 4 -6 4  6 5 -6 5  6 6 -6 6

:CHA001: TOTAL VALENCE CHARGE INSIDE SPHERE   1 =  11.5214    (RMT=  2.5000 )
:PCS001: PARTIAL CHARGES SPHERE =  1 S,P,D,F,PX,PY,PZ,D-Z2,D-X2Y2,D-XY,D-XZ,D-YZ 
:QTL001: 1.3766 0.3923 9.7353 0.0147 0.1303 0.1309 0.1311 1.9553 1.9427 1.9541 1.9419 1.9413
        Q-s-low E-s-low   Q-p-low E-p-low   Q-d-low E-d-low   Q-f-low E-f-low
:EPL001:  1.0869 -0.4650    0.0162 -0.7973    9.6678 -1.0789    0.0015 -0.8526
        Q-s-hi  E-s-hi    Q-p-hi  E-p-hi    Q-d-hi  E-d-hi    Q-f-hi  E-f-hi 
:EPH001:  0.2897  0.0275    0.3760 -0.0995    0.0676 -0.0370    0.0133 -0.0398

                      QXX         QXY         QYY         QZZ       UP TO R
:VZZ001:             0.37981     0.73646    -0.14565    -0.23415       2.500

:POS002: ATOM   -2 X,Y,Z = 0.48491 0.94655 0.25000  MULT= 4  ZZ= 55.000  Cs        

       LMMAX 28
       LM=   0 0  1 1 -1 1  2 0  2 2 -2 2  3 1 -3 1  3 3 -3 3  4 0  4 2 -4 2  4 4 -4 4  5 1 -5 1
         5 3 -5 3  5 5 -5 5  6 0  6 2 -6 2  6 4 -6 4  6 6 -6 6

:CHA002: TOTAL VALENCE CHARGE INSIDE SPHERE   2 =  16.3232    (RMT=  2.5000 )
:PCS002: PARTIAL CHARGES SPHERE =  2 S,P,D,F,PX,PY,PZ,D-Z2,D-X2Y2,D-XY,D-XZ,D-YZ 
:QTL002: 1.7981 4.510610.0124 0.0020 1.5026 1.5036 1.5043 2.0019 2.0029 2.0016 2.0025 2.0034
        Q-s-low E-s-low   Q-p-low E-p-low   Q-d-low E-d-low   Q-f-low E-f-low
:EPL002:  1.7880 -1.3990    4.3813 -0.4331    9.9947 -4.8857    0.0001 -0.9198
        Q-s-hi  E-s-hi    Q-p-hi  E-p-hi    Q-d-hi  E-d-hi    Q-f-hi  E-f-hi 
:EPH002:  0.0101 -0.0523    0.1292 -0.0396    0.0177 -0.0261    0.0019 -0.0176

                      QXX         QXY         QYY         QZZ       UP TO R
:VZZ002:             0.78397     2.19235    -0.08153    -0.70244       2.500

:POS003: ATOM   -3 X,Y,Z = 0.56000 0.50750 0.25000  MULT= 4  ZZ= 35.000  Br        

       LMMAX 28
       LM=   0 0  1 1 -1 1  2 0  2 2 -2 2  3 1 -3 1  3 3 -3 3  4 0  4 2 -4 2  4 4 -4 4  5 1 -5 1
         5 3 -5 3  5 5 -5 5  6 0  6 2 -6 2  6 4 -6 4  6 6 -6 6

:CHA003: TOTAL VALENCE CHARGE INSIDE SPHERE   3 =  15.7598    (RMT=  2.5000 )
:PCS003: PARTIAL CHARGES SPHERE =  3 S,P,D,F,PX,PY,PZ,D-Z2,D-X2Y2,D-XY,D-XZ,D-YZ 
:QTL003: 1.7829 3.959310.0141 0.0029 1.3527 1.3593 1.2474 2.0105 2.0003 2.0002 2.0019 2.0012
        Q-s-low E-s-low   Q-p-low E-p-low   Q-d-low E-d-low   Q-f-low E-f-low
:EPL003:  1.7707 -0.9057    0.0871 -0.4832   10.0046 -4.2858    0.0014 -0.6847
        Q-s-hi  E-s-hi    Q-p-hi  E-p-hi    Q-d-hi  E-d-hi    Q-f-hi  E-f-hi 
:EPH003:  0.0122 -0.0537    3.8722 -0.0344    0.0095 -0.0265    0.0015 -0.0675

                      QXX         QXY         QYY         QZZ       UP TO R
:VZZ003:            -9.12929    -0.26837   -11.05726    20.18655       2.500

:POS004: ATOM   -4 X,Y,Z = 0.19962 0.70227 0.46752  MULT= 8  ZZ= 35.000  Br        

       LMMAX 49

:CHA004: TOTAL VALENCE CHARGE INSIDE SPHERE   4 =  15.7587    (RMT=  2.5000 )
:PCS004: PARTIAL CHARGES SPHERE =  4 S,P,D,F,PX,PY,PZ,D-Z2,D-X2Y2,D-XY,D-XZ,D-YZ 
:QTL004: 1.7828 3.958810.0137 0.0028 1.3050 1.2996 1.3542 2.0026 2.0021 2.0071 2.0009 2.0010
        Q-s-low E-s-low   Q-p-low E-p-low   Q-d-low E-d-low   Q-f-low E-f-low
:EPL004:  1.7707 -0.9045    0.0847 -0.4826   10.0045 -4.2848    0.0014 -0.6870
        Q-s-hi  E-s-hi    Q-p-hi  E-p-hi    Q-d-hi  E-d-hi    Q-f-hi  E-f-hi 
:EPH004:  0.0120 -0.0554    3.8742 -0.0335    0.0092 -0.0289    0.0015 -0.0635

                      QXX         QXY         QYY         QZZ       UP TO R
:VZZ004:             3.99549   -14.38930     5.56737    -9.56286       2.500

:CHA  : TOTAL VALENCE CHARGE INSIDE UNIT CELL =     336.000000

:SUM  : SUM OF EIGENVALUES =        -802.946597773


        1.ATOM      Pb                   19 CORE STATES
:1S 001: 1S               -6466.070318612 Ry
:2S 001: 2S               -1155.106200426 Ry
:2PP001: 2P*              -1109.098904708 Ry
:2P 001: 2P                -948.138642029 Ry
:3S 001: 3S                -276.887522224 Ry
:3PP001: 3P*               -256.162735225 Ry
:3P 001: 3P                -220.248263443 Ry
:3DD001: 3D*               -186.257250336 Ry
:3D 001: 3D                -178.616679298 Ry
:4S 001: 4S                 -62.319080194 Ry
:4PP001: 4P*                -53.354298055 Ry
:4P 001: 4P                 -44.563416786 Ry
:4DD001: 4D*                -29.982483913 Ry
:4D 001: 4D                 -28.342211235 Ry
:5S 001: 5S                 -10.092634989 Ry
:5PP001: 5P*                 -7.037709536 Ry
:5P 001: 5P                  -5.396450003 Ry
:4FF001: 4F*                 -9.469349767 Ry
:4F 001: 4F                  -9.099585636 Ry

        2.ATOM      Cs                   12 CORE STATES
       CORE-FORCE in mRy/a.u. = |F|      Fx             Fy             Fz
:FCO002:   2.ATOM      6.457341265764     -6.271405215362      1.538418944003      0.000000000000

:1S 002: 1S               -2628.651962242 Ry
:2S 002: 2S                -411.714979242 Ry
:2PP002: 2P*               -387.279720789 Ry
:2P 002: 2P                -361.387299584 Ry
:3S 002: 3S                 -85.153303675 Ry
:3PP002: 3P*                -74.950380536 Ry
:3P 002: 3P                 -69.988077649 Ry
:3DD002: 3D*                -52.069826789 Ry
:3D 002: 3D                 -51.016329761 Ry
:4S 002: 4S                 -15.612001452 Ry
:4PP002: 4P*                -11.950981976 Ry
:4P 002: 4P                 -10.938814151 Ry

        3.ATOM      Br                    7 CORE STATES
       CORE-FORCE in mRy/a.u. = |F|      Fx             Fy             Fz
:FCO003:   3.ATOM     82.735993008674    -71.438158697171     41.735285084556      0.000000000000

:1S 003: 1S                -977.915082505 Ry
:2S 003: 2S                -126.709448106 Ry
:2PP003: 2P*               -114.040131463 Ry
:2P 003: 2P                -110.548657620 Ry
:3S 003: 3S                 -16.877430206 Ry
:3PP003: 3P*                -12.472861689 Ry
:3P 003: 3P                 -11.970564327 Ry

        4.ATOM      Br                    7 CORE STATES
       CORE-FORCE in mRy/a.u. = |F|      Fx             Fy             Fz
:FCO004:   4.ATOM    113.418807310564     77.248540774624     63.519943474079     53.494911729919

:1S 004: 1S                -977.914092856 Ry
:2S 004: 2S                -126.708447361 Ry
:2PP004: 2P*               -114.039132176 Ry
:2P 004: 2P                -110.547658105 Ry
:3S 004: 3S                 -16.876414997 Ry
:3PP004: 3P*                -12.471846079 Ry
:3P 004: 3P                 -11.969548247 Ry
:CINT001 Core Integral Atom   1   67.995200
:CINT002 Core Integral Atom   2   35.999909
:CINT003 Core Integral Atom   3   17.999988
:CINT004 Core Integral Atom   4   17.999988

       DENSITY AT NUCLEUS
        JATOM        VALENCE       SEMI-CORE          CORE           TOTAL
:RTO001:   1     2059.705872        0.000000  9911370.671019  9913430.376891
:RTO002:   2      321.521515        0.000000   438173.471602   438494.993118
:RTO003:   3       72.170711        0.000000    45839.372497    45911.543208
:RTO004:   4       72.162869        0.000000    45839.373303    45911.536172
     
       CHARGES OF NEW CHARGE DENSITY
:NTO   : INTERSTITIAL CHARGE =    35.512204
:NPC   : PW Pseudocharge     =   102.661363
:NTO001: CHARGE SPHERE  1    =    79.516624
:NTO002: CHARGE SPHERE  2    =    52.323139
:NTO003: CHARGE SPHERE  3    =    33.759803
:NTO004: CHARGE SPHERE  4    =    33.758725

:NEC01: NUCLEAR AND ELECTRONIC CHARGE    968.00000   967.98027
     
       CHARGES OF OLD CHARGE DENSITY
:OTO   : INTERSTITIAL CHARGE =    35.531238
:OPC   : PW Pseudocharge     =   102.716583
:OTO001: CHARGE SPHERE  1    =    79.516603
:OTO002: CHARGE SPHERE  2    =    52.323105
:OTO003: CHARGE SPHERE  3    =    33.759879
:OTO004: CHARGE SPHERE  4    =    33.758802

:NEC02: NUCLEAR AND ELECTRONIC CHARGE    968.00000   968.00000
     
       CONVERGENCE TEST
:DTO001: DIFFERENCE IN SPHERE  1 =  0.0002324
:DTO002: DIFFERENCE IN SPHERE  2 =  0.0000886
:DTO003: DIFFERENCE IN SPHERE  3 =  0.0000981
:DTO004: DIFFERENCE IN SPHERE  4 =  0.0000981

:DIS  :  CHARGE DISTANCE       ( 0.0002324 for atom    1 spin 1)      0.0001231
 PW Mixed is         2247
 
******************************************************
* MULTISECANT MIXING VER9 RELEASE 10.4.0              *
* Standard Mode with controls                        *
* Fixed density scale                                *
* Regularization       1.000E-04                     *
* Trust Upper Limit    5.000E+00                     *
* Max Number of Memory Steps    8                    *
******************************************************
 
:PWTMP   3.9481E+03  2.5000E+03  5.2571E+03
:PLANE:  PW TOTAL      8.0816 DISTAN   7.79E-04  9.64E-03 %
:CHARG:  CLM/ATOM   1115.9443 DISTAN   1.77E-04  1.58E-05 %
 
Step History
        DMIX         DMIXT        Red     Pred      Trust     Lambda    MagRel    MagAbs     Beta
  2   2.5000E-02   2.5000E-02  3.68E-01  1.00E+00 -1.00E+01  1.00E+00  2.50E-02  8.99E-02  1.00E+00
  3   4.3013E-02   4.3013E-02  8.39E-01  1.00E+00 -1.00E+01  1.03E-01  4.30E-02  5.70E-02  1.00E+00
  4   1.0753E-01   1.0753E-01  8.31E-01  1.00E+00  3.20E-01  1.28E+00  1.08E-01  1.20E-01  9.96E-01
  5   2.4730E-01   1.5048E-01  7.09E-01  7.79E-01  5.99E-01  1.25E+00  2.28E-01  2.11E-01  1.00E+00
  6   3.5000E-01   2.8168E-01  4.64E-01  5.18E-01  1.34E+00  1.08E+00  4.77E-01  3.12E-01  1.00E+00
  7   3.5000E-01   3.5000E-01  7.41E-02  1.62E-01  3.81E+00  8.04E-01  9.78E-01  2.97E-01  1.00E+00
  8   2.7789E-01   2.7789E-01  4.93E-01  6.36E-01  1.50E+01  1.12E+00  4.93E-01  1.11E-02  1.00E+00
  9   3.5000E-01   3.5000E-01  3.12E-01  6.69E-01  1.88E+01  8.73E-01  6.53E-01  7.25E-03  1.00E+00
 10   3.5000E-01   3.5000E-01 -1.00E+00  4.82E-01  2.25E+01  1.00E+00  7.57E-01  2.62E-03  1.00E+00
:JACOBIANS    2.351E+00   1.967E+00
  
:NORMS:  1/Froebius, Min, Max, Used   0.8940E+00  0.6754E+00  0.1017E+01  0.9345E+00
:INFO :  Number of Memory Steps    8 Skipping    1
:INFO :  SLambda=    1.0496533759  Max    1.0496533759
:PREDicted Charge, CTotal, PW Trust    3.148E-04   8.623E-04   2.185E-03
:PREDicted DMix, Beta, BLim   6.8781E-01  1.2667E+00  6.1228E+00

Eigenvalues, unscaled except for SY+YY
   #     SY Real        SY Imag          SS             YY         SY+YY Real      SY+YY Imag
   1   3.829267E+00   0.000000E+00   4.070614E+00   4.661056E+00   8.660732E+00   0.000000E+00
   2   2.151974E+00   0.000000E+00   1.875347E+00   2.441504E+00   4.712764E+00   0.000000E+00
   3   2.867972E-01   0.000000E+00   2.659891E-01   4.627429E-01   7.367547E-01   0.000000E+00
   4   2.510509E-01   0.000000E+00   1.495140E-01   3.159972E-01   6.059272E-01   0.000000E+00
   5   6.305901E-02   0.000000E+00   3.067767E-02   1.139751E-01   1.879996E-01   0.000000E+00
   6   2.020912E-03   0.000000E+00   1.222989E-03   3.481701E-03   5.602029E-03   0.000000E+00
   7   7.247898E-04   0.000000E+00   3.375289E-04   1.228551E-03   1.853088E-05   0.000000E+00
   8   4.338140E-06   0.000000E+00   1.347942E-06   1.392631E-05   2.062379E-03   0.000000E+00
 
:INFO :  Singular value  8.672E+00 Weight  1.000E+00 Projection -6.105E-05
:INFO :  Singular value  4.709E+00 Weight  1.000E+00 Projection  2.156E-04
:INFO :  Singular value  7.378E-01 Weight  1.000E+00 Projection -6.180E-04
:INFO :  Singular value  6.054E-01 Weight  1.000E+00 Projection -4.455E-04
:INFO :  Singular value  1.878E-01 Weight  1.000E+00 Projection  4.006E-04
:INFO :  Singular value  5.605E-03 Weight  9.931E-01 Projection  1.216E-02
:INFO :  Singular value  2.061E-03 Weight  9.513E-01 Projection -1.503E-02
:INFO :  Singular value  1.853E-05 Weight  1.578E-03 Projection  5.048E-05
:RANK :  ACTIVE   6.95/8  =  86.83 % ; YY RANK   6.86/8  =  85.72 %
 
:BLIM :  VZERO Control Off
:TRUST:  Step 2.25E+01  Charge 9.68E-02 (e) CTO  3.43E-01 (e) PW  1.05E+00 (e)
:DIRM :  MEMORY  8/8  SCALE   1.000 RED  0.30 PRED  0.48 NEXT  0.30 
:TRAVE:  Charge 4.66E-03 (e) CTO  1.60E-02 (e) PW  6.48E-02 (e)
:DIRP :  |MSR1|= 7.821E-04 |PRATT|= 7.791E-04 ANGLE=   6.2 DEGREES
:DIRQ :  |MSR1|= 6.162E-04 |PRATT|= 7.067E-04 ANGLE=  16.2 DEGREES
:DIRT :  |MSR1|= 9.957E-04 |PRATT|= 1.052E-03 ANGLE=  12.1 DEGREES
:MIX  :   MSE1   REGULARIZATION:  4.66E-04 GREED: 0.35000  Newton 1.00  0.9466                
     
       CHARGES OF MIXED CHARGE DENSITY
:CTO   : INTERSTITIAL CHARGE =    35.531838
:CPC   : PW Pseudocharge     =   102.718647
:CTO001: CHARGE SPHERE  1    =    79.516678
:CTO002: CHARGE SPHERE  2    =    52.323149
:CTO003: CHARGE SPHERE  3    =    33.759789
:CTO004: CHARGE SPHERE  4    =    33.758712

:NEC03: NUCLEAR AND ELECTRONIC CHARGE    968.00000   968.00000

PW CHANGE     H    K    L      Current       Change    Residue
:PTO001:      0    0    0  2.62979957E-02  5.068E-07  4.792E-07
:PTO006:     -1    0   -1 -2.36705965E-03 -1.154E-07 -1.216E-07
:PTO007:      0    0   -2  2.41478610E-03 -7.643E-07 -9.574E-07
:PTO008:     -1   -1    0  4.58994381E-03 -1.311E-06 -1.691E-06
:PTO009:     -1   -1   -1 -1.04206149E-02 -9.677E-07 -1.028E-06
:PTO012:      0   -2    0  6.72642393E-03  1.251E-06  1.075E-06
:PTO013:     -1   -1   -2  2.09289066E-02  5.656E-06  5.015E-06
:PTO014:     -2    0    0  6.70594925E-03  1.458E-06  1.312E-06
:PTO015:      0   -2   -1  5.68209496E-03  1.213E-06  1.234E-06
:PTO018:     -1   -2    0 -1.03088543E-02  3.973E-07  3.792E-07
:PTO019:     -2   -1    0  1.13184295E-02 -4.465E-07 -4.440E-07
:PTO021:     -1   -2   -1  1.17727101E-02 -6.244E-07 -6.289E-07

:ENE  : ********** TOTAL ENERGY IN Ry =      -292312.84417841

       TOTAL FORCE IN mRy/a.u. = |F|     Fx             Fy             Fz     with/without FOR in case.in2
:FOR001:   1.ATOM          0.000          0.000          0.000          0.000 partial forces
:FOR002:   2.ATOM          0.247         -0.183          0.165          0.000 partial forces
:FOR003:   3.ATOM         25.953         23.613        -10.769          0.000 partial forces
:FOR004:   4.ATOM         35.797        -24.124        -20.052        -17.244 partial forces
       TOTAL FORCE WITH RESPECT TO GLOBAL CARTESIAN COORDINATES:
:FCA001:   1.ATOM                         0.000          0.000          0.000 partial forces
:FCA002:   2.ATOM                        -0.183          0.165          0.000 partial forces
:FCA003:   3.ATOM                        23.613        -10.769          0.000 partial forces
:FCA004:   4.ATOM                       -24.124        -20.052        -17.244 partial forces
       TOTAL FORCE WITH RESPECT TO THE GLOBAL COORDINATE SYSTEM:
:FGL001:   1.ATOM                 0.000000000     0.000000000     0.000000000 partial forces
:FGL002:   2.ATOM                -0.183004349     0.165175875     0.000000000 partial forces
:FGL003:   3.ATOM                23.613188293   -10.769255573     0.000000000 partial forces
:FGL004:   4.ATOM               -24.123807044   -20.051792314   -17.244218105 partial forces
