
:LABEL1: Calculations in /home/cmueller/wien/FZU/src/perovskite/rkmax6_1000_gga
:LABEL2: on cv036 at Sat Jun 22 01:23:23 PM CEST 2024
:LABEL3: using WIEN2k_19.1 (Release 25/6/2019) in /home/cmueller/WIENROOT
:LABEL4: using the command: run_lapw
 Flat Integration
 New Mode for Coulomb Integral
 Consistent 3/8+Simpson combinations
 Extension of core to zero
 LDM version in phi
 Fifth-order quadrature in outwin


            ---------
:ITE001:  1. ITERATION
            ---------

:NATO :    4 INDEPENDENT AND   20 TOTAL ATOMS IN UNITCELL
       SUBSTANCE: blebleble                                                   

       LATTICE                      = P   
:POT  : POTENTIAL OPTION EX_PBE EC_PBE VX_PBE VC_PBE
:LAT  : LATTICE CONSTANTS= 15.19415 15.66734 22.08372    1.571    1.571    1.571
:VOL  : UNIT CELL VOLUME =    5257.07306
       MODE OF CALCULATION IS       = RELA
       NON-SPINPOLARIZED CALCULATION
:IFFT  : FFT-parameters:  120  120  180 Factor: 2.00


   CONVERGENCE PARAMETER FOR PSEUDOCHARGE: NCON=  9
   MAXIMAL VALUE OF RMT(JATOM)*ABSK(NKK) : RK  =29.99804


:VKCOUL :  VK-COUL convergence: 0.423E-07
       ATOMNUMBER=  1 Pb         VCOUL-ZERO =  0.10897E+00
:EFG001:                        EFG         =     0.00590   *10**21  V / m**2
                               V20  TOT/SRF=     0.00113     0.00195
                               V22  TOT/SRF=    -0.00027    -0.00077
                               V22M TOT/SRF=    -0.00029    -0.00093
                               V21  TOT/SRF=     0.00242     0.00330
                               V21M TOT/SRF=    -0.00473    -0.00516

             -0.00092   -0.00029    0.00242       -0.00105    0.00000    0.00000
             -0.00029   -0.00038   -0.00473        0.00000    0.00590    0.00000
              0.00242   -0.00473    0.00130        0.00000    0.00000   -0.00485

         MAIN DIRECTIONS OF THE EFG   1.0000  0.3879 -0.5274
                                      0.5164 -0.7730  1.0000
                                      0.0112  1.0000  0.9776
:ANG001:  ANGLE WITH OLD X-AXIS =        33.2

:ETA001:                         ASYMM. ETA =     0.64411


       ATOMNUMBER=  2 Cs         VCOUL-ZERO = -0.49697E-01
:EFG002:                        EFG         =     0.00079   *10**21  V / m**2
                               V20  TOT/SRF=    -0.00038    -0.00033
                               V22  TOT/SRF=    -0.00031    -0.00059
                               V22M TOT/SRF=    -0.00049    -0.00143
                               V21  TOT/SRF=     0.00000     0.00000
                               V21M TOT/SRF=     0.00000     0.00000

             -0.00009   -0.00049    0.00000       -0.00036    0.00000    0.00000
             -0.00049    0.00053    0.00000        0.00000    0.00079    0.00000
              0.00000    0.00000   -0.00043        0.00000    0.00000   -0.00043

         MAIN DIRECTIONS OF THE EFG   1.0000 -0.5459  0.0000
                                      0.5459  1.0000  0.0000
                                      0.0000  0.0000  1.0000
:ANG002:  ANGLE WITH OLD X-AXIS =        28.6

:ETA002:                         ASYMM. ETA =     0.09356


       ATOMNUMBER=  3 Br         VCOUL-ZERO =  0.28031E+00
:EFG003:                        EFG         =    -0.02231   *10**21  V / m**2
                               V20  TOT/SRF=     0.01925     0.05961
                               V22  TOT/SRF=     0.00410     0.00562
                               V22M TOT/SRF=    -0.01042    -0.01150
                               V21  TOT/SRF=     0.00000     0.00000
                               V21M TOT/SRF=     0.00000     0.00000

             -0.00702   -0.01042    0.00000        0.00008    0.00000    0.00000
             -0.01042   -0.01521    0.00000        0.00000   -0.02231    0.00000
              0.00000    0.00000    0.02223        0.00000    0.00000    0.02223

         MAIN DIRECTIONS OF THE EFG   1.0000  0.6813  0.0000
                                     -0.6813  1.0000  0.0000
                                      0.0000  0.0000  1.0000
:ANG003:  ANGLE WITH OLD X-AXIS =        34.3

:ETA003:                         ASYMM. ETA =     0.99277


       ATOMNUMBER=  4 Br         VCOUL-ZERO =  0.28025E+00
:EFG004:                        EFG         =     0.02212   *10**21  V / m**2
                               V20  TOT/SRF=    -0.00625    -0.02554
                               V22  TOT/SRF=    -0.00319    -0.00440
                               V22M TOT/SRF=    -0.01622    -0.04902
                               V21  TOT/SRF=    -0.00456    -0.00425
                               V21M TOT/SRF=     0.00611     0.00781

              0.00042   -0.01622   -0.00456        0.02212    0.00000    0.00000
             -0.01622    0.00679    0.00611        0.00000   -0.01296    0.00000
             -0.00456    0.00611   -0.00722        0.00000    0.00000   -0.00916

         MAIN DIRECTIONS OF THE EFG  -0.8182  1.0000  0.2387
                                      1.0000  0.8580 -0.1399
                                      0.3353 -0.1186  1.0000
:ANG004:  ANGLE WITH OLD X-AXIS =       128.5

:ETA004:                         ASYMM. ETA =     0.17181


     HELLMANN-FEYNMAN-FORCE IN mRy/a.u. = |F|  Fx       Fy             Fz
:FHF001:   1.ATOM      0.000000000000      0.000000000000      0.000000000000      0.000000000000

     HELLMANN-FEYNMAN-FORCE IN mRy/a.u. = |F|  Fx       Fy             Fz
:FHF002:   2.ATOM     13.212661606233     13.207363767740      0.374124347533      0.000000000000

     HELLMANN-FEYNMAN-FORCE IN mRy/a.u. = |F|  Fx       Fy             Fz
:FHF003:   3.ATOM    220.113963888524    -93.045637347661   -199.480992751907      0.000000000000

     HELLMANN-FEYNMAN-FORCE IN mRy/a.u. = |F|  Fx       Fy             Fz
:FHF004:   4.ATOM    174.202709980683     55.580955909951    107.026757789216    125.708450876934

:FIT001: LUSE= 13 SIGMA OF V-XC FIT FOR ATOM  1  0.7571362E-03
:FIT001: LUSE= 13 SIGMA OF V-XC FIT FOR ATOM  1  0.7571362E-03
:FIT002: LUSE= 13 SIGMA OF V-XC FIT FOR ATOM  2  0.1645418E-04
:FIT002: LUSE= 13 SIGMA OF V-XC FIT FOR ATOM  2  0.1645418E-04
:FIT003: LUSE= 13 SIGMA OF V-XC FIT FOR ATOM  3  0.7450639E-03
:FIT003: LUSE= 13 SIGMA OF V-XC FIT FOR ATOM  3  0.7450639E-03
:FIT004: LUSE= 13 SIGMA OF V-XC FIT FOR ATOM  4  0.6626845E-03
:FIT004: LUSE= 13 SIGMA OF V-XC FIT FOR ATOM  4  0.6626845E-03
:DEN  : DENSITY INTEGRAL  =       -114061.79163689   (Ry)
       ELS_POTENTIAL_AT Z=0 and Z=0.5:  -0.57564  -0.57564
       ELS_POTENTIAL_AT Y=0 and Y=0.5:  -0.47943  -0.47943
:VZERO:v0,v0c,v0x  -1.32226  -0.57564  -0.74662 v5,v5c,v5x  -1.32226  -0.57564  -0.74662
:VZERY:v0,v0c,v0x  -1.13920  -0.47943  -0.65976 v5,v5c,v5x  -1.13920  -0.47943  -0.65976
:VZERX:v0,v0c,v0x  -1.13400  -0.48141  -0.65258 v5,v5c,v5x  -1.13400  -0.48141  -0.65258
:LMAX-WF:   10   Non-Spherical LMAX:   4

          ATOMIC SPHERE DEPENDENT PARAMETERS FOR ATOM  Pb        
:e__0001: OVERALL ENERGY PARAMETER IS    0.3000
          OVERALL BASIS SET ON ATOM IS LAPW
:E2_0001: E( 2)=    0.7000
             APW+lo
:E2_0001: E( 2)=   -0.9369   E(BOTTOM)=   -1.175   E(TOP)=   -0.699  2  3   123
             LOCAL ORBITAL
:E0_0001: E( 0)=    0.3000
             APW+lo
:E1_0001: E( 1)=    0.3000
             APW+lo

          ATOMIC SPHERE DEPENDENT PARAMETERS FOR ATOM  Cs        
:e__0002: OVERALL ENERGY PARAMETER IS    0.3000
          OVERALL BASIS SET ON ATOM IS LAPW
:E2_0002: E( 2)=    0.3000
             APW+lo
:E2_0002: E( 2)=   -4.8572   E(BOTTOM)=   -4.869   E(TOP)=   -4.846  1  2   120
             LOCAL ORBITAL
:E0_0002: E( 0)=    0.7000
             APW+lo
:E0_0002: E( 0)=   -1.3662   E(BOTTOM)=   -2.049   E(TOP)=   -0.683  4  5   169
             LOCAL ORBITAL
:E1_0002: E( 1)=    0.7000
             APW+lo
:E1_0002: E( 1)=   -0.1934   E(BOTTOM)=   -1.166   E(TOP)=    0.779  3  4   199
             LOCAL ORBITAL

          ATOMIC SPHERE DEPENDENT PARAMETERS FOR ATOM  Br        
:e__0003: OVERALL ENERGY PARAMETER IS    0.3000
          OVERALL BASIS SET ON ATOM IS LAPW
:E2_0003: E( 2)=    0.3000
             APW+lo
:E2_0003: E( 2)=   -4.3424   E(BOTTOM)=   -4.346   E(TOP)=   -4.339  1  1   115
             LOCAL ORBITAL
:E0_0003: E( 0)=    0.7000
             APW+lo
:E0_0003: E( 0)=   -0.9471   E(BOTTOM)=   -1.512   E(TOP)=   -0.382  3  4   158
             LOCAL ORBITAL
:E1_0003: E( 1)=    0.3000
             APW+lo

          ATOMIC SPHERE DEPENDENT PARAMETERS FOR ATOM  Br        
:e__0004: OVERALL ENERGY PARAMETER IS    0.3000
          OVERALL BASIS SET ON ATOM IS LAPW
:E2_0004: E( 2)=    0.3000
             APW+lo
:E2_0004: E( 2)=   -4.3426   E(BOTTOM)=   -4.346   E(TOP)=   -4.339  1  1   119
             LOCAL ORBITAL
:E0_0004: E( 0)=    0.7000
             APW+lo
:E0_0004: E( 0)=   -0.9473   E(BOTTOM)=   -1.512   E(TOP)=   -0.382  3  4   153
             LOCAL ORBITAL
:E1_0004: E( 1)=    0.3000
             APW+lo

       K=   0.04545   0.04545   0.07143            1
:RKM  : MATRIX SIZE  1535LOs: 308  RKM= 6.00  WEIGHT= 8.00  PGR:    
       EIGENVALUES ARE:
:EIG00001:      -4.8534557   -4.8534401   -4.8534316   -4.8534233   -4.8534133
:EIG00006:      -4.8533830   -4.8533655   -4.8533604   -4.8533407   -4.8533239
:EIG00011:      -4.8533227   -4.8533169   -4.8533023   -4.8532903   -4.8532788
:EIG00016:      -4.8532549   -4.8532506   -4.8532374   -4.8532244   -4.8532123
:EIG00021:      -4.3420396   -4.3420308   -4.3420235   -4.3420080   -4.3420055
:EIG00026:      -4.3419985   -4.3419902   -4.3419818   -4.3419305   -4.3419211
:EIG00031:      -4.3419056   -4.3418952   -4.3417641   -4.3417552   -4.3417521
:EIG00036:      -4.3417462   -4.3417362   -4.3417249   -4.3417156   -4.3417097
:EIG00041:      -4.3417034   -4.3416993   -4.3416980   -4.3416568   -4.3416496
:EIG00046:      -4.3416419   -4.3416351   -4.3416305   -4.3416201   -4.3416078
 
:EIG00051:      -4.3415805   -4.3415667   -4.3413726   -4.3413611   -4.3413506
:EIG00056:      -4.3413487   -4.3412474   -4.3412393   -4.3412288   -4.3412231
:EIG00061:      -4.3412158   -4.3412086   -4.3412035   -4.3412005   -4.3411927
:EIG00066:      -4.3411847   -4.3411811   -4.3411734   -4.3411697   -4.3411597
:EIG00071:      -4.3411359   -4.3411165   -4.3410468   -4.3410206   -4.3410174
:EIG00076:      -4.3410150   -4.3409879   -4.3409840   -4.3409415   -4.3409397
:EIG00081:      -1.3721060   -1.3719483   -1.3717488   -1.3716822   -0.9665061
:EIG00086:      -0.9661067   -0.9655568   -0.9654750   -0.9651376   -0.9649216
:EIG00091:      -0.9483386   -0.9481383   -0.9477531   -0.9476953   -0.9473642
:EIG00096:      -0.9468818   -0.8944309   -0.8936744   -0.8930772   -0.8869231
 
:EIG00101:      -0.8866085   -0.8857557   -0.8854499   -0.8850402   -0.8849760
:EIG00106:      -0.8846599   -0.8845766   -0.8843427   -0.8841025   -0.8837870
:EIG00111:      -0.8834854   -0.8834465   -0.8724874   -0.8621838   -0.8618007
:EIG00116:      -0.8616579   -0.4122668   -0.4101638   -0.4095999   -0.4086881
:EIG00121:      -0.4075210   -0.4072482   -0.4070216   -0.4053106   -0.4051294
:EIG00126:      -0.4050093   -0.4045413   -0.4038014   -0.4032385   -0.3655910
:EIG00131:      -0.3251042   -0.2638539   -0.1472796   -0.1463842   -0.1434077
:EIG00136:      -0.1392345   -0.1373707   -0.1282054   -0.0973294   -0.0793714
:EIG00141:      -0.0765442   -0.0747456   -0.0737104   -0.0663328   -0.0576198
:EIG00146:      -0.0521306   -0.0499711   -0.0472043   -0.0444841   -0.0420735
 
:EIG00151:      -0.0409716   -0.0388578   -0.0381517   -0.0364038   -0.0300174
:EIG00156:      -0.0253689   -0.0247902   -0.0243147   -0.0226707   -0.0212465
:EIG00161:      -0.0200636   -0.0178989   -0.0165242   -0.0161467    0.0017907
:EIG00166:       0.0577496    0.1063277    0.1601375    0.3401940    0.3439384
:EIG00171:       0.3477056    0.3726677    0.3859194    0.4034225    0.4044983
:EIG00176:       0.4844850    0.4900706    0.4974251    0.5021823    0.5326575
:EIG00181:       0.5335605    0.5378533    0.5465319    0.5500471    0.5516679
:EIG00186:       0.5539924    0.5591496    0.5604199    0.5757661    0.5791361
:EIG00191:       0.5797668    0.5866692    0.6013866    0.6059140    0.6088189
:EIG00196:       0.6157953    0.6163423    0.6216915    0.6240332    0.6324018
 
:EIG00201:       0.6388764    0.6433046    0.6514402    0.6599277    0.6618451
:EIG00206:       0.6783838    0.6847374    0.6933439    0.7010891    0.7046693
:EIG00211:       0.7182477    0.7354685    0.7457690    0.7529101    0.7598687
:EIG00216:       0.7630913    0.7655235    0.7713146    0.7802911    0.7899792
:EIG00221:       0.7910343    0.7958355    0.7987086    0.8369742    0.8557819
:EIG00226:       0.8616926    0.8643854    0.8690996    0.8704592    0.8732934
:EIG00231:       0.8764849    0.8871859    0.9016797    0.9036171    0.9144638
:EIG00236:       0.9288060    0.9424409    0.9500731    0.9584277    0.9630209
:EIG00241:       0.9646559    0.9748000    0.9868264    0.9908246    1.0009451
:EIG00246:       1.0043550    1.0146917    1.0191360    1.0234106    1.0260480
 
:EIG00251:       1.0320670    1.0344315    1.0485165    1.0627302    1.0720767
:EIG00256:       1.0799995    1.0898426    1.0940439    1.0972995    1.1036601
:EIG00261:       1.1049667    1.1124076    1.1160192    1.1193254    1.1234369
:EIG00266:       1.1252571    1.1302422    1.1370934    1.1389129    1.1456189
:EIG00271:       1.1507373    1.1540830    1.1611494    1.1641253    1.1673541
:EIG00276:       1.1745064    1.1749784    1.1804959    1.1829780    1.1848721
:EIG00281:       1.1891889    1.1960327    1.1994851    1.2054783    1.2062440
:EIG00286:       1.2082907    1.2130097    1.2208789    1.2338976    1.2346238
:EIG00291:       1.2429758    1.2496011    1.2533038    1.2543832    1.2584059
:EIG00296:       1.2596642    1.2703750    1.2732113    1.2764751    1.2842464
 
:EIG00301:       1.2848034    1.2880037    1.3011869    1.3026408    1.3098339
:EIG00306:       1.3154443    1.3247933    1.3292384    1.3365835    1.3395055
:EIG00311:       1.3542902    1.3615589    1.3697570    1.3703175    1.3855165
:EIG00316:       1.3924987    1.3962307    1.3991086    1.4001428    1.4080758
:EIG00321:       1.4149923    1.4318665    1.4355314    1.4426283    1.4487958
:EIG00326:       1.4527355    1.4609968    1.4648793    1.4707363    1.4751421
:EIG00331:       1.4787428    1.4833627    1.4925186    1.4956705    1.5010483
:EIG00336:       1.5050133    1.5132050    1.5155135    1.5209471    1.5245363
:EIG00341:       1.5266253    1.5337681    1.5357688    1.5406621    1.5478926
:EIG00346:       1.5526077    1.5549159    1.5631268    1.5719691    1.5743858
 
:EIG00351:       1.5796150    1.5839452    1.5875366    1.5904612    1.5931838
:EIG00356:       1.5957412    1.6027854    1.6086404    1.6125787    1.6229721
:EIG00361:       1.6244035    1.6288986    1.6341841    1.6457407    1.6546892
:EIG00366:       1.6626057    1.6722847    1.6757529    1.6784179    1.6831295
:EIG00371:       1.6899193    1.6914720    1.6970169    1.7024190    1.7029863
:EIG00376:       1.7091808    1.7164008    1.7171802    1.7230255    1.7312979
:EIG00381:       1.7357928    1.7407721    1.7454376    1.7497306    1.7519338
:EIG00386:       1.7569201    1.7604801    1.7671368    1.7713288    1.7776671
:EIG00391:       1.7809705    1.7860590    1.7956477    1.8012372    1.8046263
:EIG00396:       1.8105919    1.8112775    1.8168819    1.8272655    1.8307019
 
:EIG00401:       1.8326935    1.8383974    1.8455805    1.8494865    1.8539802
:EIG00406:       1.8565076    1.8611259    1.8726456    1.8750279    1.8810676
:EIG00411:       1.8899233    1.8949086    1.9009035    1.9069818    1.9109049
:EIG00416:       1.9162825    1.9181070    1.9267253    1.9301524    1.9313303
:EIG00421:       1.9360169    1.9418556    1.9440485    1.9543684    1.9579637
:EIG00426:       1.9660528    1.9688229    1.9782816    1.9804891    1.9839555
:EIG00431:       1.9908249
       ********************************************************

:KPT   :      NUMBER OF K-POINTS:   144
       Insulator, EF-inconsistency corrected
:GAP (global)   :  0.180057 Ry =     2.450 eV (accurate value if proper k-mesh)
         Bandranges (emin - emax) and occupancy:
:BAN00158: 158   -0.034435   -0.023064  2.00000000
:BAN00159: 159   -0.031516   -0.022671  2.00000000
:BAN00160: 160   -0.031516   -0.021247  2.00000000
:BAN00161: 161   -0.027184   -0.019365  2.00000000
:BAN00162: 162   -0.026403   -0.017474  2.00000000
:BAN00163: 163   -0.021213   -0.011782  2.00000000
:BAN00164: 164   -0.021205   -0.011782  2.00000000
:BAN00165: 165    0.001791    0.068769  2.00000000
:BAN00166: 166    0.012436    0.070575  2.00000000
:BAN00167: 167    0.042444    0.122089  2.00000000
:BAN00168: 168    0.042444    0.160137  2.00000000
:BAN00169: 169    0.340194    0.442202  0.00000000
:BAN00170: 170    0.343938    0.442202  0.00000000
:BAN00171: 171    0.347706    0.448777  0.00000000
:BAN00172: 172    0.365631    0.448777  0.00000000
:BAN00173: 173    0.382151    0.466567  0.00000000
        Energy to separate low and high energystates:   -0.46227


:NOE  : NUMBER OF ELECTRONS          =  336.000

:FER  : F E R M I - ENERGY(TETRAH.M.)=   0.1601374804
:GMA  : POTENTIAL AND CHARGE CUT-OFF  12.00 Ry**.5

:POS001: ATOM   -1 X,Y,Z = 0.50000 0.50000 0.50000  MULT= 4  ZZ= 82.000  Pb        

       LMMAX 28
       LM=   0 0  2 0  2 1 -2 1  2 2 -2 2  4 0  4 1 -4 1  4 2 -4 2  4 3 -4 3  4 4 -4 4  6 0  6 1
        -6 1  6 2 -6 2  6 3 -6 3  6 4 -6 4  6 5 -6 5  6 6 -6 6

:CHA001: TOTAL VALENCE CHARGE INSIDE SPHERE   1 =  11.2815    (RMT=  2.5000 )
:PCS001: PARTIAL CHARGES SPHERE =  1 S,P,D,F,PX,PY,PZ,D-Z2,D-X2Y2,D-XY,D-XZ,D-YZ 
:QTL001: 1.3303 0.2651 9.6734 0.0107 0.0875 0.0881 0.0894 1.9428 1.9305 1.9414 1.9297 1.9289
        Q-s-low E-s-low   Q-p-low E-p-low   Q-d-low E-d-low   Q-f-low E-f-low
:EPL001:  0.0177 -0.9541    0.0087 -0.9461    9.5960 -0.8873    0.0010 -0.9733
        Q-s-hi  E-s-hi    Q-p-hi  E-p-hi    Q-d-hi  E-d-hi    Q-f-hi  E-f-hi 
:EPH001:  1.3126 -0.2169    0.2563 -0.0891    0.0774 -0.0555    0.0097 -0.0567

                      QXX         QXY         QYY         QZZ       UP TO R
:VZZ001:             0.65238     0.65573     0.16863    -0.82102       2.500

:POS002: ATOM   -2 X,Y,Z = 0.48491 0.94655 0.25000  MULT= 4  ZZ= 55.000  Cs        

       LMMAX 28
       LM=   0 0  1 1 -1 1  2 0  2 2 -2 2  3 1 -3 1  3 3 -3 3  4 0  4 2 -4 2  4 4 -4 4  5 1 -5 1
         5 3 -5 3  5 5 -5 5  6 0  6 2 -6 2  6 4 -6 4  6 6 -6 6

:CHA002: TOTAL VALENCE CHARGE INSIDE SPHERE   2 =  16.2686    (RMT=  2.5000 )
:PCS002: PARTIAL CHARGES SPHERE =  2 S,P,D,F,PX,PY,PZ,D-Z2,D-X2Y2,D-XY,D-XZ,D-YZ 
:QTL002: 1.7948 4.463010.0083 0.0021 1.4869 1.4878 1.4883 2.0012 2.0021 2.0009 2.0017 2.0024
        Q-s-low E-s-low   Q-p-low E-p-low   Q-d-low E-d-low   Q-f-low E-f-low
:EPL002:  1.7853 -1.3715    0.0022 -0.9437    9.9939 -4.8533    0.0002 -1.1126
        Q-s-hi  E-s-hi    Q-p-hi  E-p-hi    Q-d-hi  E-d-hi    Q-f-hi  E-f-hi 
:EPH002:  0.0095 -0.0754    4.4609 -0.3943    0.0144 -0.0501    0.0019 -0.0468

                      QXX         QXY         QYY         QZZ       UP TO R
:VZZ002:             0.55410     1.60638    -0.11355    -0.44055       2.500

:POS003: ATOM   -3 X,Y,Z = 0.56000 0.50750 0.25000  MULT= 4  ZZ= 35.000  Br        

       LMMAX 28
       LM=   0 0  1 1 -1 1  2 0  2 2 -2 2  3 1 -3 1  3 3 -3 3  4 0  4 2 -4 2  4 4 -4 4  5 1 -5 1
         5 3 -5 3  5 5 -5 5  6 0  6 2 -6 2  6 4 -6 4  6 6 -6 6

:CHA003: TOTAL VALENCE CHARGE INSIDE SPHERE   3 =  15.9342    (RMT=  2.5000 )
:PCS003: PARTIAL CHARGES SPHERE =  3 S,P,D,F,PX,PY,PZ,D-Z2,D-X2Y2,D-XY,D-XZ,D-YZ 
:QTL003: 1.7962 4.121510.0133 0.0021 1.3923 1.3962 1.3330 2.0105 2.0004 2.0001 2.0015 2.0009
        Q-s-low E-s-low   Q-p-low E-p-low   Q-d-low E-d-low   Q-f-low E-f-low
:EPL003:  1.7653 -0.9477    0.0064 -0.8926    9.9996 -4.3409    0.0004 -0.9674
        Q-s-hi  E-s-hi    Q-p-hi  E-p-hi    Q-d-hi  E-d-hi    Q-f-hi  E-f-hi 
:EPH003:  0.0309 -0.2375    4.1151 -0.0571    0.0137 -0.1101    0.0017 -0.1791

                      QXX         QXY         QYY         QZZ       UP TO R
:VZZ003:            -5.15974    -0.35793    -6.36000    11.51974       2.500

:POS004: ATOM   -4 X,Y,Z = 0.19962 0.70227 0.46752  MULT= 8  ZZ= 35.000  Br        

       LMMAX 49

:CHA004: TOTAL VALENCE CHARGE INSIDE SPHERE   4 =  15.9348    (RMT=  2.5000 )
:PCS004: PARTIAL CHARGES SPHERE =  4 S,P,D,F,PX,PY,PZ,D-Z2,D-X2Y2,D-XY,D-XZ,D-YZ 
:QTL004: 1.7959 4.122910.0129 0.0020 1.3663 1.3633 1.3933 2.0026 2.0017 2.0070 2.0007 2.0009
        Q-s-low E-s-low   Q-p-low E-p-low   Q-d-low E-d-low   Q-f-low E-f-low
:EPL004:  1.7657 -0.9477    0.0062 -0.8916    9.9996 -4.3411    0.0004 -0.9655
        Q-s-hi  E-s-hi    Q-p-hi  E-p-hi    Q-d-hi  E-d-hi    Q-f-hi  E-f-hi 
:EPH004:  0.0302 -0.2379    4.1168 -0.0572    0.0133 -0.1117    0.0017 -0.1700

                      QXX         QXY         QYY         QZZ       UP TO R
:VZZ004:             2.17175    -8.22340     3.12303    -5.29478       2.500

:CHA  : TOTAL VALENCE CHARGE INSIDE UNIT CELL =     336.000000

:SUM  : SUM OF EIGENVALUES =        -800.294069960


        1.ATOM      Pb                   19 CORE STATES
:1S 001: 1S               -6465.856478861 Ry
:2S 001: 2S               -1154.903306790 Ry
:2PP001: 2P*              -1108.893817011 Ry
:2P 001: 2P                -947.935173972 Ry
:3S 001: 3S                -276.693360124 Ry
:3PP001: 3P*               -255.968010997 Ry
:3P 001: 3P                -220.054280836 Ry
:3DD001: 3D*               -186.062537820 Ry
:3D 001: 3D                -178.422247597 Ry
:4S 001: 4S                 -62.128808944 Ry
:4PP001: 4P*                -53.163996678 Ry
:4P 001: 4P                 -44.373404565 Ry
:4DD001: 4D*                -29.792605091 Ry
:4D 001: 4D                 -28.152442018 Ry
:5S 001: 5S                  -9.904885030 Ry
:5PP001: 5P*                 -6.849845520 Ry
:5P 001: 5P                  -5.208607376 Ry
:4FF001: 4F*                 -9.280070916 Ry
:4F 001: 4F                  -8.910355399 Ry

        2.ATOM      Cs                   12 CORE STATES
       CORE-FORCE in mRy/a.u. = |F|      Fx             Fy             Fz
:FCO002:   2.ATOM      8.842542940986     -8.835064566040     -0.363592872713      0.000000000000

:1S 002: 1S               -2628.589836052 Ry
:2S 002: 2S                -411.663315835 Ry
:2PP002: 2P*               -387.226059542 Ry
:2P 002: 2P                -361.334303543 Ry
:3S 002: 3S                 -85.113558932 Ry
:3PP002: 3P*                -74.910137637 Ry
:3P 002: 3P                 -69.948285401 Ry
:3DD002: 3D*                -52.028973622 Ry
:3D 002: 3D                 -50.975649671 Ry
:4S 002: 4S                 -15.579493186 Ry
:4PP002: 4P*                -11.918652724 Ry
:4P 002: 4P                 -10.906723180 Ry

        3.ATOM      Br                    7 CORE STATES
       CORE-FORCE in mRy/a.u. = |F|      Fx             Fy             Fz
:FCO003:   3.ATOM    113.798211866841     46.855090037281    103.704549377974      0.000000000000

:1S 003: 1S                -977.960077086 Ry
:2S 003: 2S                -126.757186875 Ry
:2PP003: 2P*               -114.087264181 Ry
:2P 003: 2P                -110.595877631 Ry
:3S 003: 3S                 -16.930995736 Ry
:3PP003: 3P*                -12.526450390 Ry
:3P 003: 3P                 -12.024239283 Ry

        4.ATOM      Br                    7 CORE STATES
       CORE-FORCE in mRy/a.u. = |F|      Fx             Fy             Fz
:FCO004:   4.ATOM     88.726814992281    -27.631481055139    -54.539348517191    -64.299365601025

:1S 004: 1S                -977.960247445 Ry
:2S 004: 2S                -126.757357083 Ry
:2PP004: 2P*               -114.087434426 Ry
:2P 004: 2P                -110.596047870 Ry
:3S 004: 3S                 -16.931164448 Ry
:3PP004: 3P*                -12.526618974 Ry
:3P 004: 3P                 -12.024407776 Ry
:CINT001 Core Integral Atom   1   67.995039
:CINT002 Core Integral Atom   2   35.999909
:CINT003 Core Integral Atom   3   17.999989
:CINT004 Core Integral Atom   4   17.999989

       DENSITY AT NUCLEUS
        JATOM        VALENCE       SEMI-CORE          CORE           TOTAL
:RTO001:   1     1928.414515        0.000000  9911349.920423  9913278.334939
:RTO002:   2      320.753917        0.000000   438170.878700   438491.632617
:RTO003:   3       73.627833        0.000000    45839.135817    45912.763650
:RTO004:   4       73.611679        0.000000    45839.135906    45912.747585
     
       CHARGES OF NEW CHARGE DENSITY
:NTO   : INTERSTITIAL CHARGE =    34.584103
:NPC   : PW Pseudocharge     =    88.008504
:NTO001: CHARGE SPHERE  1    =    79.276509
:NTO002: CHARGE SPHERE  2    =    52.268548
:NTO003: CHARGE SPHERE  3    =    33.934173
:NTO004: CHARGE SPHERE  4    =    33.934828

:NEC01: NUCLEAR AND ELECTRONIC CHARGE    968.00000   967.97965
     
       CHARGES OF OLD CHARGE DENSITY
:OTO   : INTERSTITIAL CHARGE =    36.611693
:OPC   : PW Pseudocharge     =   131.429837
:OTO001: CHARGE SPHERE  1    =    79.809567
:OTO002: CHARGE SPHERE  2    =    52.317982
:OTO003: CHARGE SPHERE  3    =    33.573161
:OTO004: CHARGE SPHERE  4    =    33.572536

:NEC02: NUCLEAR AND ELECTRONIC CHARGE    968.00000   967.99483
     
       CONVERGENCE TEST
:DTO001: DIFFERENCE IN SPHERE  1 =  0.2761708
:DTO002: DIFFERENCE IN SPHERE  2 =  0.0772680
:DTO003: DIFFERENCE IN SPHERE  3 =  0.1802223
:DTO004: DIFFERENCE IN SPHERE  4 =  0.1808961

:DIS  :  CHARGE DISTANCE       ( 0.2761708 for atom    1 spin 1)      0.1790907
 PW Mixed is         1449
 
******************************************************
* MULTISECANT MIXING VER9 RELEASE 10.4.0              *
* Standard Mode with controls                        *
* Fixed density scale                                *
* Regularization       1.000E-04                     *
* Trust Upper Limit    5.000E+00                     *
* Max Number of Memory Steps    8                    *
******************************************************
 
:PWTMP   3.9481E+03  2.5000E+03  5.2571E+03
:PLANE:  PW TOTAL     10.8714 DISTAN   4.69E+00  4.31E+01 %
:CHARG:  CLM/ATOM   1115.9684 DISTAN   2.15E-01  1.92E-02 %
 
Step History
        DMIX         DMIXT        Red     Pred      Trust     Lambda    MagRel    MagAbs     Beta
  1   3.5000E-02   3.5000E-02 -1.00E+00  1.00E+00 -1.00E+01  1.00E+00  3.50E-02  3.50E-02  1.00E+00
:INFO :  Note, Pratt in use
:TRUST:  Step 3.75E-02  Charge 7.50E-02 (e) CTO  4.43E-01 (e) PW  6.21E-01 (e)
:DIRM :  MEMORY  0/ 8 SCALE   1.000
Performing Pseudo Compensation
Final Pseudo Compensation Rescaling     1.00027E+00
:MIX  :   PRATT  REGULARIZATION:  1.00E-04 GREED: 0.02500                  
     
       CHARGES OF MIXED CHARGE DENSITY
:CTO   : INTERSTITIAL CHARGE =    36.566556
:CPC   : PW Pseudocharge     =   104.892384
:CTO001: CHARGE SPHERE  1    =    79.796241
:CTO002: CHARGE SPHERE  2    =    52.316746
:CTO003: CHARGE SPHERE  3    =    33.582186
:CTO004: CHARGE SPHERE  4    =    33.581594

:NEC03: NUCLEAR AND ELECTRONIC CHARGE    968.00000   968.00000

PW CHANGE     H    K    L      Current       Change    Residue
:PTO001:      0    0    0  2.69083079E-02 -5.061E-03 -8.636E-03
:PTO006:     -1    0   -1 -2.32614477E-03  4.610E-04  7.119E-04
:PTO007:      0    0   -2  3.74899331E-03 -1.713E-03 -3.266E-03
:PTO008:     -1   -1    0  7.13385384E-03 -3.577E-03 -6.573E-03
:PTO009:     -1   -1   -1 -1.00278985E-02  2.519E-03  3.694E-03
:PTO012:      0   -2    0  7.60224332E-03 -3.452E-03 -5.471E-03
:PTO013:     -1   -1   -2  2.47862849E-02 -1.258E-02 -2.058E-02
:PTO014:     -2    0    0  7.53186382E-03 -3.526E-03 -5.558E-03
:PTO015:      0   -2   -1  5.48177784E-03 -1.747E-03 -2.695E-03
:PTO018:     -1   -2    0 -9.92125910E-03  2.333E-03  3.267E-03
:PTO019:     -2   -1    0  1.08965471E-02 -2.615E-03 -3.661E-03
:PTO021:     -1   -2   -1  1.13348243E-02 -2.788E-03 -3.895E-03

:ENE  : ********** TOTAL ENERGY IN Ry =      -292312.45116532

       TOTAL FORCE IN mRy/a.u. = |F|     Fx             Fy             Fz     with/without FOR in case.in2
:FOR001:   1.ATOM          0.000          0.000          0.000          0.000 partial forces
:FOR002:   2.ATOM          4.372          4.372          0.011          0.000 partial forces
:FOR003:   3.ATOM        106.333        -46.191        -95.776          0.000 partial forces
:FOR004:   4.ATOM         85.482         27.949         52.487         61.409 partial forces
       TOTAL FORCE WITH RESPECT TO GLOBAL CARTESIAN COORDINATES:
:FCA001:   1.ATOM                         0.000          0.000          0.000 partial forces
:FCA002:   2.ATOM                         4.372          0.011          0.000 partial forces
:FCA003:   3.ATOM                       -46.191        -95.776          0.000 partial forces
:FCA004:   4.ATOM                        27.949         52.487         61.409 partial forces
       TOTAL FORCE WITH RESPECT TO THE GLOBAL COORDINATE SYSTEM:
:FGL001:   1.ATOM                 0.000000000     0.000000000     0.000000000 partial forces
:FGL002:   2.ATOM                 4.372299202     0.010531475     0.000000000 partial forces
:FGL003:   3.ATOM               -46.190547310   -95.776443374     0.000000000 partial forces
:FGL004:   4.ATOM                27.949474855    52.487409272    61.409085276 partial forces
 Flat Integration
 New Mode for Coulomb Integral
 Consistent 3/8+Simpson combinations
 Extension of core to zero
 LDM version in phi
 Fifth-order quadrature in outwin


            ---------
:ITE002:  2. ITERATION
            ---------

:NATO :    4 INDEPENDENT AND   20 TOTAL ATOMS IN UNITCELL
       SUBSTANCE: blebleble                                                   

       LATTICE                      = P   
:POT  : POTENTIAL OPTION EX_PBE EC_PBE VX_PBE VC_PBE
:LAT  : LATTICE CONSTANTS= 15.19415 15.66734 22.08372    1.571    1.571    1.571
:VOL  : UNIT CELL VOLUME =    5257.07306
       MODE OF CALCULATION IS       = RELA
       NON-SPINPOLARIZED CALCULATION
:IFFT  : FFT-parameters:  120  120  180 Factor: 2.00


   CONVERGENCE PARAMETER FOR PSEUDOCHARGE: NCON=  9
   MAXIMAL VALUE OF RMT(JATOM)*ABSK(NKK) : RK  =29.99804


:VKCOUL :  VK-COUL convergence: 0.244E-08
       ATOMNUMBER=  1 Pb         VCOUL-ZERO =  0.90214E-01
:EFG001:                        EFG         =     0.02819   *10**21  V / m**2
                               V20  TOT/SRF=    -0.01647     0.00203
                               V22  TOT/SRF=     0.00578    -0.00073
                               V22M TOT/SRF=     0.01603    -0.00092
                               V21  TOT/SRF=    -0.00636     0.00328
                               V21M TOT/SRF=    -0.00622    -0.00508

              0.01529    0.01603   -0.00636        0.02819    0.00000    0.00000
              0.01603    0.00374   -0.00622        0.00000   -0.00739    0.00000
             -0.00636   -0.00622   -0.01902        0.00000    0.00000   -0.02080

         MAIN DIRECTIONS OF THE EFG   1.0000 -0.7431  0.0898
                                      0.7139  1.0000  0.1947
                                     -0.2288 -0.1279  1.0000
:ANG001:  ANGLE WITH OLD X-AXIS =        36.8

:ETA001:                         ASYMM. ETA =     0.47602


       ATOMNUMBER=  2 Cs         VCOUL-ZERO = -0.64012E-01
:EFG002:                        EFG         =     0.04656   *10**21  V / m**2
                               V20  TOT/SRF=    -0.01001    -0.00043
                               V22  TOT/SRF=     0.00806    -0.00054
                               V22M TOT/SRF=     0.03997    -0.00105
                               V21  TOT/SRF=     0.00000     0.00000
                               V21M TOT/SRF=     0.00000     0.00000

              0.01384    0.03997    0.00000        0.04656    0.00000    0.00000
              0.03997   -0.00228    0.00000        0.00000   -0.03500    0.00000
              0.00000    0.00000   -0.01156        0.00000    0.00000   -0.01156

         MAIN DIRECTIONS OF THE EFG   1.0000 -0.8185  0.0000
                                      0.8185  1.0000  0.0000
                                      0.0000  0.0000  1.0000
:ANG002:  ANGLE WITH OLD X-AXIS =        39.3

:ETA002:                         ASYMM. ETA =     0.50351


       ATOMNUMBER=  3 Br         VCOUL-ZERO =  0.26816E+00
:EFG003:                        EFG         =     0.31543   *10**21  V / m**2
                               V20  TOT/SRF=     0.27317     0.06295
                               V22  TOT/SRF=     0.01923     0.00570
                               V22M TOT/SRF=    -0.01936    -0.01142
                               V21  TOT/SRF=     0.00000     0.00000
                               V21M TOT/SRF=     0.00000     0.00000

             -0.13849   -0.01936    0.00000       -0.13043    0.00000    0.00000
             -0.01936   -0.17694    0.00000        0.00000   -0.18500    0.00000
              0.00000    0.00000    0.31543        0.00000    0.00000    0.31543

         MAIN DIRECTIONS OF THE EFG   1.0000  0.4163  0.0000
                                     -0.4163  1.0000  0.0000
                                      0.0000  0.0000  1.0000
:ANG003:  ANGLE WITH OLD X-AXIS =        22.6

:ETA003:                         ASYMM. ETA =     0.17302


       ATOMNUMBER=  4 Br         VCOUL-ZERO =  0.26823E+00
:EFG004:                        EFG         =     0.29814   *10**21  V / m**2
                               V20  TOT/SRF=    -0.12298    -0.02708
                               V22  TOT/SRF=    -0.01521    -0.00450
                               V22M TOT/SRF=    -0.22548    -0.05174
                               V21  TOT/SRF=    -0.02534    -0.00411
                               V21M TOT/SRF=     0.00711     0.00790

              0.05579   -0.22548   -0.02534        0.29814    0.00000    0.00000
             -0.22548    0.08622    0.00711        0.00000   -0.16394    0.00000
             -0.02534    0.00711   -0.14201        0.00000    0.00000   -0.13421

         MAIN DIRECTIONS OF THE EFG  -0.9377  1.0000 -0.4445
                                      1.0000  0.8766 -0.4870
                                      0.0701  0.8714  1.0000
:ANG004:  ANGLE WITH OLD X-AXIS =       130.6

:ETA004:                         ASYMM. ETA =     0.09972


     HELLMANN-FEYNMAN-FORCE IN mRy/a.u. = |F|  Fx       Fy             Fz
:FHF001:   1.ATOM      0.000000000000      0.000000000000      0.000000000000      0.000000000000

     HELLMANN-FEYNMAN-FORCE IN mRy/a.u. = |F|  Fx       Fy             Fz
:FHF002:   2.ATOM     13.391328950628     13.360634547755      0.906165296876      0.000000000000

     HELLMANN-FEYNMAN-FORCE IN mRy/a.u. = |F|  Fx       Fy             Fz
:FHF003:   3.ATOM    205.424240574560    -81.139161822819   -188.720838897895      0.000000000000

     HELLMANN-FEYNMAN-FORCE IN mRy/a.u. = |F|  Fx       Fy             Fz
:FHF004:   4.ATOM    155.167323379938     45.533467751960     95.120759926173    113.822856186456

:FIT001: LUSE= 13 SIGMA OF V-XC FIT FOR ATOM  1  0.7727843E-03
:FIT001: LUSE= 13 SIGMA OF V-XC FIT FOR ATOM  1  0.7727843E-03
:FIT002: LUSE= 13 SIGMA OF V-XC FIT FOR ATOM  2  0.1696758E-04
:FIT002: LUSE= 13 SIGMA OF V-XC FIT FOR ATOM  2  0.1696758E-04
:FIT003: LUSE= 13 SIGMA OF V-XC FIT FOR ATOM  3  0.7200989E-03
:FIT003: LUSE= 13 SIGMA OF V-XC FIT FOR ATOM  3  0.7200989E-03
:FIT004: LUSE= 13 SIGMA OF V-XC FIT FOR ATOM  4  0.6403589E-03
:FIT004: LUSE= 13 SIGMA OF V-XC FIT FOR ATOM  4  0.6403589E-03
:DEN  : DENSITY INTEGRAL  =       -114047.43812235   (Ry)
       ELS_POTENTIAL_AT Z=0 and Z=0.5:  -0.53687  -0.53687
       ELS_POTENTIAL_AT Y=0 and Y=0.5:  -0.44764  -0.44764
:VZERO:v0,v0c,v0x  -1.25075  -0.53687  -0.71388 v5,v5c,v5x  -1.25075  -0.53687  -0.71388
:VZERY:v0,v0c,v0x  -1.08056  -0.44764  -0.63292 v5,v5c,v5x  -1.08056  -0.44764  -0.63292
:VZERX:v0,v0c,v0x  -1.07284  -0.44683  -0.62601 v5,v5c,v5x  -1.07284  -0.44683  -0.62601
:LMAX-WF:   10   Non-Spherical LMAX:   4

          ATOMIC SPHERE DEPENDENT PARAMETERS FOR ATOM  Pb        
:e__0001: OVERALL ENERGY PARAMETER IS    0.1000
          OVERALL BASIS SET ON ATOM IS LAPW
:E2_0001: E( 2)=    0.5000
             APW+lo
:E2_0001: E( 2)=   -0.9583   E(BOTTOM)=   -1.196   E(TOP)=   -0.721  2  3   124
             LOCAL ORBITAL
:E0_0001: E( 0)=    0.1000
             APW+lo
:E1_0001: E( 1)=    0.1000
             APW+lo

          ATOMIC SPHERE DEPENDENT PARAMETERS FOR ATOM  Cs        
:e__0002: OVERALL ENERGY PARAMETER IS    0.1000
          OVERALL BASIS SET ON ATOM IS LAPW
:E2_0002: E( 2)=    0.1000
             APW+lo
:E2_0002: E( 2)=   -4.8722   E(BOTTOM)=   -4.884   E(TOP)=   -4.861  1  2   118
             LOCAL ORBITAL
:E0_0002: E( 0)=    0.5000
             APW+lo
:E0_0002: E( 0)=   -1.3809   E(BOTTOM)=   -2.064   E(TOP)=   -0.698  4  5   163
             LOCAL ORBITAL
:E1_0002: E( 1)=    0.5000
             APW+lo
:E1_0002: E( 1)=   -0.2080   E(BOTTOM)=   -1.180   E(TOP)=    0.764  3  4   200
             LOCAL ORBITAL

          ATOMIC SPHERE DEPENDENT PARAMETERS FOR ATOM  Br        
:e__0003: OVERALL ENERGY PARAMETER IS    0.1000
          OVERALL BASIS SET ON ATOM IS LAPW
:E2_0003: E( 2)=    0.1000
             APW+lo
:E2_0003: E( 2)=   -4.3507   E(BOTTOM)=   -4.354   E(TOP)=   -4.347  0  1   121
             LOCAL ORBITAL
:E0_0003: E( 0)=    0.5000
             APW+lo
:E0_0003: E( 0)=   -0.9572   E(BOTTOM)=   -1.523   E(TOP)=   -0.392  3  4   160
             LOCAL ORBITAL
:E1_0003: E( 1)=    0.1000
             APW+lo

          ATOMIC SPHERE DEPENDENT PARAMETERS FOR ATOM  Br        
:e__0004: OVERALL ENERGY PARAMETER IS    0.1000
          OVERALL BASIS SET ON ATOM IS LAPW
:E2_0004: E( 2)=    0.1000
             APW+lo
:E2_0004: E( 2)=   -4.3507   E(BOTTOM)=   -4.354   E(TOP)=   -4.347  0  1   117
             LOCAL ORBITAL
:E0_0004: E( 0)=    0.5000
             APW+lo
:E0_0004: E( 0)=   -0.9572   E(BOTTOM)=   -1.523   E(TOP)=   -0.392  3  4   159
             LOCAL ORBITAL
:E1_0004: E( 1)=    0.1000
             APW+lo

       K=   0.04545   0.04545   0.07143            1
:RKM  : MATRIX SIZE  1535LOs: 308  RKM= 6.00  WEIGHT= 8.00  PGR:    
       EIGENVALUES ARE:
:EIG00001:      -4.8685138   -4.8684962   -4.8684898   -4.8684770   -4.8684696
:EIG00006:      -4.8684469   -4.8684265   -4.8684198   -4.8684034   -4.8683882
:EIG00011:      -4.8683824   -4.8683786   -4.8683559   -4.8683485   -4.8683380
:EIG00016:      -4.8683208   -4.8683122   -4.8682985   -4.8682905   -4.8682740
:EIG00021:      -4.3502661   -4.3502520   -4.3502398   -4.3502301   -4.3502208
:EIG00026:      -4.3502151   -4.3502089   -4.3501929   -4.3501907   -4.3501842
:EIG00031:      -4.3501771   -4.3501679   -4.3499719   -4.3499659   -4.3499531
:EIG00036:      -4.3499360   -4.3499039   -4.3498911   -4.3498889   -4.3498745
:EIG00041:      -4.3498631   -4.3498527   -4.3498477   -4.3498421   -4.3498378
:EIG00046:      -4.3498207   -4.3498046   -4.3497908   -4.3497737   -4.3497471
 
:EIG00051:      -4.3497174   -4.3497021   -4.3496612   -4.3496408   -4.3496359
:EIG00056:      -4.3496278   -4.3492666   -4.3492562   -4.3492462   -4.3492410
:EIG00061:      -4.3492359   -4.3492265   -4.3492234   -4.3492196   -4.3492094
:EIG00066:      -4.3492046   -4.3492029   -4.3491953   -4.3491907   -4.3491878
:EIG00071:      -4.3491748   -4.3491708   -4.3491659   -4.3491643   -4.3491508
:EIG00076:      -4.3491414   -4.3491346   -4.3491304   -4.3490936   -4.3490906
:EIG00081:      -1.3865843   -1.3864303   -1.3862326   -1.3861678   -0.9788147
:EIG00086:      -0.9783664   -0.9780670   -0.9780434   -0.9779193   -0.9765081
:EIG00091:      -0.9584875   -0.9583861   -0.9580481   -0.9578261   -0.9574375
:EIG00096:      -0.9569369   -0.9158130   -0.9150994   -0.9143930   -0.9084476
 
:EIG00101:      -0.9081980   -0.9073441   -0.9068715   -0.9066222   -0.9063228
:EIG00106:      -0.9062082   -0.9061033   -0.9058921   -0.9055788   -0.9053561
:EIG00111:      -0.9050781   -0.9043897   -0.8917013   -0.8804877   -0.8801264
:EIG00116:      -0.8800214   -0.4263179   -0.4257255   -0.4241990   -0.4234927
:EIG00121:      -0.4217092   -0.4214898   -0.4211657   -0.4194367   -0.4192069
:EIG00126:      -0.4191970   -0.4187421   -0.4180391   -0.4173053   -0.3830191
:EIG00131:      -0.3429029   -0.2825924   -0.1596082   -0.1588272   -0.1558723
:EIG00136:      -0.1515722   -0.1496928   -0.1408235   -0.1079508   -0.0901163
:EIG00141:      -0.0872502   -0.0855085   -0.0844955   -0.0771245   -0.0684118
:EIG00146:      -0.0625593   -0.0604691   -0.0576717   -0.0551136   -0.0526504
 
:EIG00151:      -0.0514444   -0.0492991   -0.0487201   -0.0470133   -0.0406409
:EIG00156:      -0.0364483   -0.0359842   -0.0355215   -0.0332215   -0.0317803
:EIG00161:      -0.0305680   -0.0281766   -0.0268834   -0.0264092   -0.0089544
:EIG00166:       0.0446216    0.0927261    0.1459981    0.3241579    0.3278216
:EIG00171:       0.3318100    0.3564963    0.3696975    0.3874345    0.3926212
:EIG00176:       0.4727670    0.4785059    0.4852968    0.4903272    0.5184265
:EIG00181:       0.5209108    0.5253571    0.5327947    0.5372380    0.5378196
:EIG00186:       0.5413925    0.5469044    0.5481056    0.5620973    0.5663730
:EIG00191:       0.5673427    0.5747735    0.5878975    0.5912704    0.5955184
:EIG00196:       0.6011518    0.6027036    0.6079541    0.6105953    0.6201279
 
:EIG00201:       0.6258436    0.6298064    0.6386202    0.6469537    0.6490017
:EIG00206:       0.6659541    0.6723580    0.6812615    0.6882790    0.6926092
:EIG00211:       0.7061989    0.7231291    0.7334718    0.7411539    0.7480465
:EIG00216:       0.7506901    0.7535943    0.7593475    0.7682677    0.7779120
:EIG00221:       0.7792756    0.7838690    0.7867214    0.8245161    0.8437318
:EIG00226:       0.8494980    0.8516899    0.8568487    0.8584655    0.8611054
:EIG00231:       0.8640041    0.8749379    0.8891959    0.8911696    0.9025361
:EIG00236:       0.9168041    0.9300316    0.9377215    0.9463749    0.9509396
:EIG00241:       0.9527940    0.9623914    0.9751412    0.9780427    0.9885561
:EIG00246:       0.9917021    1.0018699    1.0069204    1.0116681    1.0144181
 
:EIG00251:       1.0196708    1.0221080    1.0365297    1.0506777    1.0601761
:EIG00256:       1.0678308    1.0784154    1.0821532    1.0854485    1.0922707
:EIG00261:       1.0929615    1.1010373    1.1046690    1.1084220    1.1126235
:EIG00266:       1.1139316    1.1193518    1.1250773    1.1273529    1.1342800
:EIG00271:       1.1395544    1.1426368    1.1499686    1.1528465    1.1563337
:EIG00276:       1.1632869    1.1636269    1.1689543    1.1715848    1.1738349
:EIG00281:       1.1778579    1.1850216    1.1882345    1.1943225    1.1949483
:EIG00286:       1.1968395    1.2023366    1.2097470    1.2228823    1.2236496
:EIG00291:       1.2324356    1.2385770    1.2423715    1.2438213    1.2472441
:EIG00296:       1.2499132    1.2595005    1.2627790    1.2661092    1.2737880
 
:EIG00301:       1.2745585    1.2768955    1.2904091    1.2909283    1.2992509
:EIG00306:       1.3045022    1.3139366    1.3185811    1.3254196    1.3276607
:EIG00311:       1.3436279    1.3521495    1.3585387    1.3599267    1.3780216
:EIG00316:       1.3828116    1.3856358    1.3886751    1.3897076    1.3976718
:EIG00321:       1.4049386    1.4215785    1.4250085    1.4333610    1.4388833
:EIG00326:       1.4433186    1.4506909    1.4549576    1.4622723    1.4674722
:EIG00331:       1.4692416    1.4750595    1.4843968    1.4862446    1.4934002
:EIG00336:       1.4986408    1.5046936    1.5075052    1.5134917    1.5174782
:EIG00341:       1.5188538    1.5254379    1.5277638    1.5310994    1.5401294
:EIG00346:       1.5455127    1.5474079    1.5552738    1.5627647    1.5639327
 
:EIG00351:       1.5738511    1.5771529    1.5818807    1.5848092    1.5857377
:EIG00356:       1.5899685    1.5937116    1.6030492    1.6067984    1.6153196
:EIG00361:       1.6180466    1.6224970    1.6263442    1.6382752    1.6462084
:EIG00366:       1.6536856    1.6648508    1.6687007    1.6707211    1.6756373
:EIG00371:       1.6814591    1.6831936    1.6889574    1.6917333    1.6944930
:EIG00376:       1.7009703    1.7076298    1.7100851    1.7146957    1.7215267
:EIG00381:       1.7268277    1.7317028    1.7362134    1.7407774    1.7426798
:EIG00386:       1.7467313    1.7513313    1.7583523    1.7619770    1.7688984
:EIG00391:       1.7741346    1.7779402    1.7866149    1.7939010    1.7959538
       ********************************************************

:KPT   :      NUMBER OF K-POINTS:   144
       Insulator, EF-inconsistency corrected
:GAP (global)   :  0.178160 Ry =     2.424 eV (accurate value if proper k-mesh)
         Bandranges (emin - emax) and occupancy:
:BAN00158: 158   -0.044894   -0.033544  2.00000000
:BAN00159: 159   -0.042133   -0.033222  2.00000000
:BAN00160: 160   -0.042133   -0.031780  2.00000000
:BAN00161: 161   -0.038066   -0.029813  2.00000000
:BAN00162: 162   -0.037151   -0.027840  2.00000000
:BAN00163: 163   -0.031756   -0.022129  2.00000000
:BAN00164: 164   -0.031756   -0.022129  2.00000000
:BAN00165: 165   -0.008954    0.055355  2.00000000
:BAN00166: 166    0.000610    0.057137  2.00000000
:BAN00167: 167    0.028763    0.108122  2.00000000
:BAN00168: 168    0.028763    0.145998  2.00000000
:BAN00169: 169    0.324158    0.427819  0.00000000
:BAN00170: 170    0.327822    0.427819  0.00000000
:BAN00171: 171    0.331810    0.434036  0.00000000
:BAN00172: 172    0.349633    0.434036  0.00000000
:BAN00173: 173    0.365932    0.451475  0.00000000
        Energy to separate low and high energystates:   -0.47632


:NOE  : NUMBER OF ELECTRONS          =  336.000

:FER  : F E R M I - ENERGY(TETRAH.M.)=   0.1459980695
:GMA  : POTENTIAL AND CHARGE CUT-OFF  12.00 Ry**.5

:POS001: ATOM   -1 X,Y,Z = 0.50000 0.50000 0.50000  MULT= 4  ZZ= 82.000  Pb        

       LMMAX 28
       LM=   0 0  2 0  2 1 -2 1  2 2 -2 2  4 0  4 1 -4 1  4 2 -4 2  4 3 -4 3  4 4 -4 4  6 0  6 1
        -6 1  6 2 -6 2  6 3 -6 3  6 4 -6 4  6 5 -6 5  6 6 -6 6

:CHA001: TOTAL VALENCE CHARGE INSIDE SPHERE   1 =  11.2915    (RMT=  2.5000 )
:PCS001: PARTIAL CHARGES SPHERE =  1 S,P,D,F,PX,PY,PZ,D-Z2,D-X2Y2,D-XY,D-XZ,D-YZ 
:QTL001: 1.3322 0.2715 9.6749 0.0108 0.0897 0.0903 0.0915 1.9432 1.9308 1.9418 1.9300 1.9292
        Q-s-low E-s-low   Q-p-low E-p-low   Q-d-low E-d-low   Q-f-low E-f-low
:EPL001:  0.0183 -0.9645    0.0089 -0.9562    9.5981 -0.9088    0.0010 -0.9823
        Q-s-hi  E-s-hi    Q-p-hi  E-p-hi    Q-d-hi  E-d-hi    Q-f-hi  E-f-hi 
:EPH001:  1.3139 -0.2366    0.2627 -0.1015    0.0768 -0.0667    0.0098 -0.0678

                      QXX         QXY         QYY         QZZ       UP TO R
:VZZ001:             0.64806     0.66742     0.15064    -0.79871       2.500

:POS002: ATOM   -2 X,Y,Z = 0.48491 0.94655 0.25000  MULT= 4  ZZ= 55.000  Cs        

       LMMAX 28
       LM=   0 0  1 1 -1 1  2 0  2 2 -2 2  3 1 -3 1  3 3 -3 3  4 0  4 2 -4 2  4 4 -4 4  5 1 -5 1
         5 3 -5 3  5 5 -5 5  6 0  6 2 -6 2  6 4 -6 4  6 6 -6 6

:CHA002: TOTAL VALENCE CHARGE INSIDE SPHERE   2 =  16.2712    (RMT=  2.5000 )
:PCS002: PARTIAL CHARGES SPHERE =  2 S,P,D,F,PX,PY,PZ,D-Z2,D-X2Y2,D-XY,D-XZ,D-YZ 
:QTL002: 1.7951 4.465110.0085 0.0021 1.4876 1.4885 1.4890 2.0012 2.0021 2.0009 2.0017 2.0025
        Q-s-low E-s-low   Q-p-low E-p-low   Q-d-low E-d-low   Q-f-low E-f-low
:EPL002:  1.7856 -1.3860    0.0022 -0.9544    9.9939 -4.8683    0.0002 -1.1335
        Q-s-hi  E-s-hi    Q-p-hi  E-p-hi    Q-d-hi  E-d-hi    Q-f-hi  E-f-hi 
:EPH002:  0.0096 -0.0860    4.4629 -0.4084    0.0146 -0.0607    0.0019 -0.0571

                      QXX         QXY         QYY         QZZ       UP TO R
:VZZ002:             0.56968     1.62067    -0.11256    -0.45712       2.500

:POS003: ATOM   -3 X,Y,Z = 0.56000 0.50750 0.25000  MULT= 4  ZZ= 35.000  Br        

       LMMAX 28
       LM=   0 0  1 1 -1 1  2 0  2 2 -2 2  3 1 -3 1  3 3 -3 3  4 0  4 2 -4 2  4 4 -4 4  5 1 -5 1
         5 3 -5 3  5 5 -5 5  6 0  6 2 -6 2  6 4 -6 4  6 6 -6 6

:CHA003: TOTAL VALENCE CHARGE INSIDE SPHERE   3 =  15.9241    (RMT=  2.5000 )
:PCS003: PARTIAL CHARGES SPHERE =  3 S,P,D,F,PX,PY,PZ,D-Z2,D-X2Y2,D-XY,D-XZ,D-YZ 
:QTL003: 1.7957 4.112010.0133 0.0021 1.3900 1.3940 1.3280 2.0104 2.0004 2.0001 2.0016 2.0009
        Q-s-low E-s-low   Q-p-low E-p-low   Q-d-low E-d-low   Q-f-low E-f-low
:EPL003:  1.7643 -0.9579    0.0062 -0.9134    9.9996 -4.3491    0.0004 -0.9885
        Q-s-hi  E-s-hi    Q-p-hi  E-p-hi    Q-d-hi  E-d-hi    Q-f-hi  E-f-hi 
:EPH003:  0.0314 -0.2551    4.1058 -0.0682    0.0137 -0.1257    0.0017 -0.1953

                      QXX         QXY         QYY         QZZ       UP TO R
:VZZ003:            -5.41344    -0.35308    -6.63357    12.04701       2.500

:POS004: ATOM   -4 X,Y,Z = 0.19962 0.70227 0.46752  MULT= 8  ZZ= 35.000  Br        

       LMMAX 49

:CHA004: TOTAL VALENCE CHARGE INSIDE SPHERE   4 =  15.9248    (RMT=  2.5000 )
:PCS004: PARTIAL CHARGES SPHERE =  4 S,P,D,F,PX,PY,PZ,D-Z2,D-X2Y2,D-XY,D-XZ,D-YZ 
:QTL004: 1.7955 4.113410.0129 0.0020 1.3628 1.3595 1.3911 2.0025 2.0017 2.0070 2.0007 2.0009
        Q-s-low E-s-low   Q-p-low E-p-low   Q-d-low E-d-low   Q-f-low E-f-low
:EPL004:  1.7648 -0.9577    0.0060 -0.9125    9.9996 -4.3492    0.0004 -0.9865
        Q-s-hi  E-s-hi    Q-p-hi  E-p-hi    Q-d-hi  E-d-hi    Q-f-hi  E-f-hi 
:EPH004:  0.0307 -0.2556    4.1074 -0.0680    0.0133 -0.1275    0.0017 -0.1863

                      QXX         QXY         QYY         QZZ       UP TO R
:VZZ004:             2.29016    -8.60432     3.27372    -5.56388       2.500

:CHA  : TOTAL VALENCE CHARGE INSIDE UNIT CELL =     336.000000

:SUM  : SUM OF EIGENVALUES =        -804.383783513


        1.ATOM      Pb                   19 CORE STATES
:1S 001: 1S               -6465.880897014 Ry
:2S 001: 2S               -1154.927271812 Ry
:2PP001: 2P*              -1108.917874831 Ry
:2P 001: 2P                -947.959162594 Ry
:3S 001: 3S                -276.716840827 Ry
:3PP001: 3P*               -255.991526939 Ry
:3P 001: 3P                -220.077744160 Ry
:3DD001: 3D*               -186.086067792 Ry
:3D 001: 3D                -178.445759521 Ry
:4S 001: 4S                 -62.151819952 Ry
:4PP001: 4P*                -53.187007717 Ry
:4P 001: 4P                 -44.396355270 Ry
:4DD001: 4D*                -29.815546365 Ry
:4D 001: 4D                 -28.175363555 Ry
:5S 001: 5S                  -9.927151137 Ry
:5PP001: 5P*                 -6.872029034 Ry
:5P 001: 5P                  -5.230653786 Ry
:4FF001: 4F*                 -9.302955646 Ry
:4F 001: 4F                  -8.933229308 Ry

        2.ATOM      Cs                   12 CORE STATES
       CORE-FORCE in mRy/a.u. = |F|      Fx             Fy             Fz
:FCO002:   2.ATOM      8.969282364135     -8.944299184432     -0.668982979578      0.000000000000

:1S 002: 1S               -2628.606267336 Ry
:2S 002: 2S                -411.679350900 Ry
:2PP002: 2P*               -387.242170795 Ry
:2P 002: 2P                -361.350389389 Ry
:3S 002: 3S                 -85.129092274 Ry
:3PP002: 3P*                -74.925693061 Ry
:3P 002: 3P                 -69.963819923 Ry
:3DD002: 3D*                -52.044559551 Ry
:3D 002: 3D                 -50.991227892 Ry
:4S 002: 4S                 -15.594627154 Ry
:4PP002: 4P*                -11.933773833 Ry
:4P 002: 4P                 -10.921828247 Ry

        3.ATOM      Br                    7 CORE STATES
       CORE-FORCE in mRy/a.u. = |F|      Fx             Fy             Fz
:FCO003:   3.ATOM    106.097367320047     40.472679952947     98.074530484073      0.000000000000

:1S 003: 1S                -977.967679517 Ry
:2S 003: 2S                -126.765028514 Ry
:2PP003: 2P*               -114.095074152 Ry
:2P 003: 2P                -110.603692423 Ry
:3S 003: 3S                 -16.939178269 Ry
:3PP003: 3P*                -12.534639779 Ry
:3P 003: 3P                 -12.032440176 Ry

        4.ATOM      Br                    7 CORE STATES
       CORE-FORCE in mRy/a.u. = |F|      Fx             Fy             Fz
:FCO004:   4.ATOM     78.580534586466    -22.253589594124    -48.170255799932    -57.959508471348

:1S 004: 1S                -977.967698412 Ry
:2S 004: 2S                -126.765048943 Ry
:2PP004: 2P*               -114.095094352 Ry
:2P 004: 2P                -110.603712656 Ry
:3S 004: 3S                 -16.939199543 Ry
:3PP004: 3P*                -12.534660948 Ry
:3P 004: 3P                 -12.032461314 Ry
:CINT001 Core Integral Atom   1   67.995051
:CINT002 Core Integral Atom   2   35.999909
:CINT003 Core Integral Atom   3   17.999989
:CINT004 Core Integral Atom   4   17.999989

       DENSITY AT NUCLEUS
        JATOM        VALENCE       SEMI-CORE          CORE           TOTAL
:RTO001:   1     1947.665275        0.000000  9911352.206274  9913299.871549
:RTO002:   2      320.868320        0.000000   438170.993149   438491.861469
:RTO003:   3       73.564627        0.000000    45839.118818    45912.683445
:RTO004:   4       73.550820        0.000000    45839.118801    45912.669621
     
       CHARGES OF NEW CHARGE DENSITY
:NTO   : INTERSTITIAL CHARGE =    34.654254
:NPC   : PW Pseudocharge     =    88.102598
:NTO001: CHARGE SPHERE  1    =    79.286524
:NTO002: CHARGE SPHERE  2    =    52.271118
:NTO003: CHARGE SPHERE  3    =    33.924133
:NTO004: CHARGE SPHERE  4    =    33.924792

:NEC01: NUCLEAR AND ELECTRONIC CHARGE    968.00000   967.97969
     
       CHARGES OF OLD CHARGE DENSITY
:OTO   : INTERSTITIAL CHARGE =    36.566556
:OPC   : PW Pseudocharge     =   104.892384
:OTO001: CHARGE SPHERE  1    =    79.796241
:OTO002: CHARGE SPHERE  2    =    52.316746
:OTO003: CHARGE SPHERE  3    =    33.582186
:OTO004: CHARGE SPHERE  4    =    33.581594

:NEC02: NUCLEAR AND ELECTRONIC CHARGE    968.00000   968.00000
     
       CONVERGENCE TEST
:DTO001: DIFFERENCE IN SPHERE  1 =  0.2645283
:DTO002: DIFFERENCE IN SPHERE  2 =  0.0730032
:DTO003: DIFFERENCE IN SPHERE  3 =  0.1735399
:DTO004: DIFFERENCE IN SPHERE  4 =  0.1742455

:DIS  :  CHARGE DISTANCE       ( 0.2645283 for atom    1 spin 1)      0.1719125
 PW Mixed is         1449
 
******************************************************
* MULTISECANT MIXING VER9 RELEASE 10.4.0              *
* Slow Mode, cautious                                *
* Fixed density scale                                *
* Regularization       1.000E-04                     *
* Step Trust Radius    0.75000                       *
* Trust Upper Limit    2.000E+00                     *
* Max Number of Memory Steps   12                    *
******************************************************
 
:PWTMP   3.9481E+03  2.5000E+03  5.2571E+03
:PLANE:  PW TOTAL      8.0541 DISTAN   1.46E+00  1.81E+01 %
:CHARG:  CLM/ATOM   1115.9675 DISTAN   2.06E-01  1.85E-02 %
 
Step History
        DMIX         DMIXT        Red     Pred      Trust     Lambda    MagRel    MagAbs     Beta
  1   3.5000E-02   3.5000E-02 -1.00E+00  1.00E+00 -1.00E+01  1.00E+00  3.50E-02  3.50E-02  1.00E+00
  2   2.5000E-02   2.5000E-02 -1.00E+00  1.00E+00 -1.00E+01  1.00E+00  2.50E-02  1.19E-01  1.00E+00
:JACOBIANS    4.985E-01   3.793E-05
  
:TRUST:  Step 5.08E-02  Charge 7.50E-02 (e) CTO  4.43E-01 (e) PW  6.21E-01 (e)
:DIRM :  MEMORY  1/12 SCALE   1.000
:MIX  :   PRATT  REGULARIZATION:  1.00E-04 GREED: 0.05081  Expand 2.03  0.0508 PW             
     
       CHARGES OF MIXED CHARGE DENSITY
:CTO   : INTERSTITIAL CHARGE =    36.564148
:CPC   : PW Pseudocharge     =   103.621484
:CTO001: CHARGE SPHERE  1    =    79.795603
:CTO002: CHARGE SPHERE  2    =    52.316687
:CTO003: CHARGE SPHERE  3    =    33.582618
:CTO004: CHARGE SPHERE  4    =    33.582027

:NEC03: NUCLEAR AND ELECTRONIC CHARGE    968.00000   968.00000

PW CHANGE     H    K    L      Current       Change    Residue
:PTO001:      0    0    0  2.66660993E-02 -2.422E-04 -3.544E-03
:PTO006:     -1    0   -1 -2.30408365E-03  2.206E-05  2.522E-04
:PTO007:      0    0   -2  3.66700146E-03 -8.199E-05 -1.515E-03
:PTO008:     -1   -1    0  6.96267890E-03 -1.712E-04 -2.919E-03
:PTO009:     -1   -1   -1 -9.90733070E-03  1.206E-04  1.172E-03
:PTO012:      0   -2    0  7.43703162E-03 -1.652E-04 -1.993E-03
:PTO013:     -1   -1   -2  2.41840710E-02 -6.022E-04 -7.885E-03
:PTO014:     -2    0    0  7.36311002E-03 -1.688E-04 -2.006E-03
:PTO015:      0   -2   -1  5.39819000E-03 -8.359E-05 -9.455E-04
:PTO018:     -1   -2    0 -9.80962324E-03  1.116E-04  9.367E-04
:PTO019:     -2   -1    0  1.07713898E-02 -1.252E-04 -1.049E-03
:PTO021:     -1   -2   -1  1.12013755E-02 -1.334E-04 -1.109E-03

:ENE  : ********** TOTAL ENERGY IN Ry =      -292312.43351826

       TOTAL FORCE IN mRy/a.u. = |F|     Fx             Fy             Fz     with/without FOR in case.in2
:FOR001:   1.ATOM          0.000          0.000          0.000          0.000 partial forces
:FOR002:   2.ATOM          4.423          4.416          0.237          0.000 partial forces
:FOR003:   3.ATOM         99.350        -40.666        -90.646          0.000 partial forces
:FOR004:   4.ATOM         76.596         23.280         46.951         55.863 partial forces
       TOTAL FORCE WITH RESPECT TO GLOBAL CARTESIAN COORDINATES:
:FCA001:   1.ATOM                         0.000          0.000          0.000 partial forces
:FCA002:   2.ATOM                         4.416          0.237          0.000 partial forces
:FCA003:   3.ATOM                       -40.666        -90.646          0.000 partial forces
:FCA004:   4.ATOM                        23.280         46.951         55.863 partial forces
       TOTAL FORCE WITH RESPECT TO THE GLOBAL COORDINATE SYSTEM:
:FGL001:   1.ATOM                 0.000000000     0.000000000     0.000000000 partial forces
:FGL002:   2.ATOM                 4.416335363     0.237182317     0.000000000 partial forces
:FGL003:   3.ATOM               -40.666481870   -90.646308414     0.000000000 partial forces
:FGL004:   4.ATOM                23.279878158    46.950504126    55.863347715 partial forces
 Flat Integration
 New Mode for Coulomb Integral
 Consistent 3/8+Simpson combinations
 Extension of core to zero
 LDM version in phi
 Fifth-order quadrature in outwin


            ---------
:ITE003:  3. ITERATION
            ---------

:NATO :    4 INDEPENDENT AND   20 TOTAL ATOMS IN UNITCELL
       SUBSTANCE: blebleble                                                   

       LATTICE                      = P   
:POT  : POTENTIAL OPTION EX_PBE EC_PBE VX_PBE VC_PBE
:LAT  : LATTICE CONSTANTS= 15.19415 15.66734 22.08372    1.571    1.571    1.571
:VOL  : UNIT CELL VOLUME =    5257.07306
       MODE OF CALCULATION IS       = RELA
       NON-SPINPOLARIZED CALCULATION
:IFFT  : FFT-parameters:  120  120  180 Factor: 2.00


   CONVERGENCE PARAMETER FOR PSEUDOCHARGE: NCON=  9
   MAXIMAL VALUE OF RMT(JATOM)*ABSK(NKK) : RK  =29.99804


:VKCOUL :  VK-COUL convergence: 0.243E-08
       ATOMNUMBER=  1 Pb         VCOUL-ZERO =  0.89293E-01
:EFG001:                        EFG         =     0.02957   *10**21  V / m**2
                               V20  TOT/SRF=    -0.01732     0.00204
                               V22  TOT/SRF=     0.00607    -0.00073
                               V22M TOT/SRF=     0.01682    -0.00092
                               V21  TOT/SRF=    -0.00678     0.00328
                               V21M TOT/SRF=    -0.00629    -0.00507

              0.01606    0.01682   -0.00678        0.02957    0.00000    0.00000
              0.01682    0.00393   -0.00629        0.00000   -0.00777    0.00000
             -0.00678   -0.00629   -0.02000        0.00000    0.00000   -0.02180

         MAIN DIRECTIONS OF THE EFG   1.0000 -0.7357  0.0995
                                      0.7116  1.0000  0.1793
                                     -0.2271 -0.1061  1.0000
:ANG001:  ANGLE WITH OLD X-AXIS =        36.6

:ETA001:                         ASYMM. ETA =     0.47433


       ATOMNUMBER=  2 Cs         VCOUL-ZERO = -0.64668E-01
:EFG002:                        EFG         =     0.04880   *10**21  V / m**2
                               V20  TOT/SRF=    -0.01047    -0.00044
                               V22  TOT/SRF=     0.00846    -0.00054
                               V22M TOT/SRF=     0.04191    -0.00104
                               V21  TOT/SRF=     0.00000     0.00000
                               V21M TOT/SRF=     0.00000     0.00000

              0.01451    0.04191    0.00000        0.04880    0.00000    0.00000
              0.04191   -0.00242    0.00000        0.00000   -0.03671    0.00000
              0.00000    0.00000   -0.01209        0.00000    0.00000   -0.01209

         MAIN DIRECTIONS OF THE EFG   1.0000 -0.8183  0.0000
                                      0.8183  1.0000  0.0000
                                      0.0000  0.0000  1.0000
:ANG002:  ANGLE WITH OLD X-AXIS =        39.3

:ETA002:                         ASYMM. ETA =     0.50450


       ATOMNUMBER=  3 Br         VCOUL-ZERO =  0.26757E+00
:EFG003:                        EFG         =     0.32947   *10**21  V / m**2
                               V20  TOT/SRF=     0.28533     0.06312
                               V22  TOT/SRF=     0.01995     0.00570
                               V22M TOT/SRF=    -0.01979    -0.01142
                               V21  TOT/SRF=     0.00000     0.00000
                               V21M TOT/SRF=     0.00000     0.00000

             -0.14478   -0.01979    0.00000       -0.13663    0.00000    0.00000
             -0.01979   -0.18469    0.00000        0.00000   -0.19284    0.00000
              0.00000    0.00000    0.32947        0.00000    0.00000    0.32947

         MAIN DIRECTIONS OF THE EFG   1.0000  0.4118  0.0000
                                     -0.4118  1.0000  0.0000
                                      0.0000  0.0000  1.0000
:ANG003:  ANGLE WITH OLD X-AXIS =        22.4

:ETA003:                         ASYMM. ETA =     0.17060


       ATOMNUMBER=  4 Br         VCOUL-ZERO =  0.26766E+00
:EFG004:                        EFG         =     0.31143   *10**21  V / m**2
                               V20  TOT/SRF=    -0.12858    -0.02716
                               V22  TOT/SRF=    -0.01579    -0.00450
                               V22M TOT/SRF=    -0.23550    -0.05187
                               V21  TOT/SRF=    -0.02633    -0.00410
                               V21M TOT/SRF=     0.00715     0.00791

              0.05845   -0.23550   -0.02633        0.31143    0.00000    0.00000
             -0.23550    0.09002    0.00715        0.00000   -0.17128    0.00000
             -0.02633    0.00715   -0.14847        0.00000    0.00000   -0.14016

         MAIN DIRECTIONS OF THE EFG  -0.9381  1.0000 -0.4489
                                      1.0000  0.8772 -0.4904
                                      0.0693  0.8791  1.0000
:ANG004:  ANGLE WITH OLD X-AXIS =       130.6

:ETA004:                         ASYMM. ETA =     0.09993


     HELLMANN-FEYNMAN-FORCE IN mRy/a.u. = |F|  Fx       Fy             Fz
:FHF001:   1.ATOM      0.000000000000      0.000000000000      0.000000000000      0.000000000000

     HELLMANN-FEYNMAN-FORCE IN mRy/a.u. = |F|  Fx       Fy             Fz
:FHF002:   2.ATOM     13.402894499576     13.369757765039      0.941890795653      0.000000000000

     HELLMANN-FEYNMAN-FORCE IN mRy/a.u. = |F|  Fx       Fy             Fz
:FHF003:   3.ATOM    204.707230446785    -80.539994993360   -188.197660462777      0.000000000000

     HELLMANN-FEYNMAN-FORCE IN mRy/a.u. = |F|  Fx       Fy             Fz
:FHF004:   4.ATOM    154.200319750635     45.023523478276     94.517579448084    113.212402677773

:FIT001: LUSE= 13 SIGMA OF V-XC FIT FOR ATOM  1  0.7735359E-03
:FIT001: LUSE= 13 SIGMA OF V-XC FIT FOR ATOM  1  0.7735359E-03
:FIT002: LUSE= 13 SIGMA OF V-XC FIT FOR ATOM  2  0.1699239E-04
:FIT002: LUSE= 13 SIGMA OF V-XC FIT FOR ATOM  2  0.1699239E-04
:FIT003: LUSE= 13 SIGMA OF V-XC FIT FOR ATOM  3  0.7189214E-03
:FIT003: LUSE= 13 SIGMA OF V-XC FIT FOR ATOM  3  0.7189214E-03
:FIT004: LUSE= 13 SIGMA OF V-XC FIT FOR ATOM  4  0.6393116E-03
:FIT004: LUSE= 13 SIGMA OF V-XC FIT FOR ATOM  4  0.6393116E-03
:DEN  : DENSITY INTEGRAL  =       -114046.74895788   (Ry)
       ELS_POTENTIAL_AT Z=0 and Z=0.5:  -0.53503  -0.53503
       ELS_POTENTIAL_AT Y=0 and Y=0.5:  -0.44612  -0.44612
:VZERO:v0,v0c,v0x  -1.24690  -0.53503  -0.71188 v5,v5c,v5x  -1.24690  -0.53503  -0.71188
:VZERY:v0,v0c,v0x  -1.07743  -0.44612  -0.63131 v5,v5c,v5x  -1.07743  -0.44612  -0.63131
:VZERX:v0,v0c,v0x  -1.06959  -0.44518  -0.62441 v5,v5c,v5x  -1.06959  -0.44518  -0.62441
:LMAX-WF:   10   Non-Spherical LMAX:   4

          ATOMIC SPHERE DEPENDENT PARAMETERS FOR ATOM  Pb        
:e__0001: OVERALL ENERGY PARAMETER IS   -0.0027
          OVERALL BASIS SET ON ATOM IS LAPW
:E2_0001: E( 2)=    0.3973
             APW+lo
:E2_0001: E( 2)=   -0.9593   E(BOTTOM)=   -1.197   E(TOP)=   -0.722  2  3   124
             LOCAL ORBITAL
:E0_0001: E( 0)=   -0.0027
             APW+lo
:E1_0001: E( 1)=   -0.0027
             APW+lo

          ATOMIC SPHERE DEPENDENT PARAMETERS FOR ATOM  Cs        
:e__0002: OVERALL ENERGY PARAMETER IS   -0.0027
          OVERALL BASIS SET ON ATOM IS LAPW
:E2_0002: E( 2)=   -0.0027
             APW+lo
:E2_0002: E( 2)=   -4.8729   E(BOTTOM)=   -4.885   E(TOP)=   -4.861  1  2   126
             LOCAL ORBITAL
:E0_0002: E( 0)=    0.3973
             APW+lo
:E0_0002: E( 0)=   -1.3816   E(BOTTOM)=   -2.064   E(TOP)=   -0.699  4  5   176
             LOCAL ORBITAL
:E1_0002: E( 1)=    0.3973
             APW+lo
:E1_0002: E( 1)=   -0.2087   E(BOTTOM)=   -1.181   E(TOP)=    0.763  3  4   203
             LOCAL ORBITAL

          ATOMIC SPHERE DEPENDENT PARAMETERS FOR ATOM  Br        
:e__0003: OVERALL ENERGY PARAMETER IS   -0.0027
          OVERALL BASIS SET ON ATOM IS LAPW
:E2_0003: E( 2)=   -0.0027
             APW+lo
:E2_0003: E( 2)=   -4.3511   E(BOTTOM)=   -4.354   E(TOP)=   -4.348  0  1   120
             LOCAL ORBITAL
:E0_0003: E( 0)=    0.3973
             APW+lo
:E0_0003: E( 0)=   -0.9577   E(BOTTOM)=   -1.523   E(TOP)=   -0.392  3  4   157
             LOCAL ORBITAL
:E1_0003: E( 1)=   -0.0027
             APW+lo

          ATOMIC SPHERE DEPENDENT PARAMETERS FOR ATOM  Br        
:e__0004: OVERALL ENERGY PARAMETER IS   -0.0027
          OVERALL BASIS SET ON ATOM IS LAPW
:E2_0004: E( 2)=   -0.0027
             APW+lo
:E2_0004: E( 2)=   -4.3511   E(BOTTOM)=   -4.354   E(TOP)=   -4.348  0  1   120
             LOCAL ORBITAL
:E0_0004: E( 0)=    0.3973
             APW+lo
:E0_0004: E( 0)=   -0.9577   E(BOTTOM)=   -1.523   E(TOP)=   -0.392  3  4   161
             LOCAL ORBITAL
:E1_0004: E( 1)=   -0.0027
             APW+lo

       K=   0.04545   0.04545   0.07143            1
:RKM  : MATRIX SIZE  1535LOs: 308  RKM= 6.00  WEIGHT= 8.00  PGR:    
       EIGENVALUES ARE:
:EIG00001:      -4.8692079   -4.8691902   -4.8691841   -4.8691710   -4.8691635
:EIG00006:      -4.8691414   -4.8691208   -4.8691139   -4.8690980   -4.8690828
:EIG00011:      -4.8690768   -4.8690730   -4.8690501   -4.8690426   -4.8690322
:EIG00016:      -4.8690154   -4.8690065   -4.8689929   -4.8689852   -4.8689684
:EIG00021:      -4.3506672   -4.3506532   -4.3506419   -4.3506309   -4.3506163
:EIG00026:      -4.3506093   -4.3506031   -4.3505873   -4.3505854   -4.3505790
:EIG00031:      -4.3505719   -4.3505626   -4.3503699   -4.3503639   -4.3503519
:EIG00036:      -4.3503348   -4.3502960   -4.3502833   -4.3502811   -4.3502666
:EIG00041:      -4.3502562   -4.3502449   -4.3502396   -4.3502342   -4.3502298
:EIG00046:      -4.3502140   -4.3501967   -4.3501826   -4.3501657   -4.3501391
 
:EIG00051:      -4.3501094   -4.3500939   -4.3500602   -4.3500395   -4.3500345
:EIG00056:      -4.3500258   -4.3496523   -4.3496421   -4.3496319   -4.3496268
:EIG00061:      -4.3496220   -4.3496130   -4.3496097   -4.3496060   -4.3495965
:EIG00066:      -4.3495929   -4.3495891   -4.3495838   -4.3495765   -4.3495743
:EIG00071:      -4.3495631   -4.3495622   -4.3495584   -4.3495543   -4.3495381
:EIG00076:      -4.3495318   -4.3495257   -4.3495170   -4.3494854   -4.3494824
:EIG00081:      -1.3872556   -1.3871021   -1.3869045   -1.3868396   -0.9794729
:EIG00086:      -0.9790135   -0.9787112   -0.9786707   -0.9785102   -0.9770259
:EIG00091:      -0.9589816   -0.9588818   -0.9585483   -0.9583178   -0.9579255
:EIG00096:      -0.9574236   -0.9168844   -0.9161710   -0.9154571   -0.9095084
 
:EIG00101:      -0.9092578   -0.9084089   -0.9079310   -0.9076841   -0.9073812
:EIG00106:      -0.9072678   -0.9071607   -0.9069522   -0.9066355   -0.9064167
:EIG00111:      -0.9061400   -0.9054112   -0.8926409   -0.8813738   -0.8810118
:EIG00116:      -0.8809114   -0.4269852   -0.4266276   -0.4248584   -0.4241529
:EIG00121:      -0.4223725   -0.4221501   -0.4218286   -0.4200981   -0.4198668
:EIG00126:      -0.4198582   -0.4194067   -0.4187070   -0.4179621   -0.3839146
:EIG00131:      -0.3438029   -0.2835182   -0.1602114   -0.1594360   -0.1564813
:EIG00136:      -0.1521746   -0.1502944   -0.1414387   -0.1084673   -0.0906369
:EIG00141:      -0.0877684   -0.0860283   -0.0850161   -0.0776462   -0.0689330
:EIG00146:      -0.0630630   -0.0609770   -0.0581780   -0.0556264   -0.0531617
 
:EIG00151:      -0.0519517   -0.0498041   -0.0492305   -0.0475279   -0.0411571
:EIG00156:      -0.0369834   -0.0365264   -0.0360602   -0.0337321   -0.0322911
:EIG00161:      -0.0310766   -0.0286731   -0.0273830   -0.0269035   -0.0094718
:EIG00166:       0.0439864    0.0920658    0.1453109    0.3233905    0.3270504
:EIG00171:       0.3310504    0.3557263    0.3689267    0.3866722    0.3920763
:EIG00176:       0.4722325    0.4779695    0.4847482    0.4897864    0.5178023
:EIG00181:       0.5203287    0.5247901    0.5322073    0.5366594    0.5372338
:EIG00186:       0.5408263    0.5463330    0.5475439    0.5614891    0.5657852
:EIG00191:       0.5668024    0.5742543    0.5873046    0.5906488    0.5949625
:EIG00196:       0.6005817    0.6021331    0.6073867    0.6100661    0.6195973
 
:EIG00201:       0.6252819    0.6292580    0.6380694    0.6463840    0.6484396
:EIG00206:       0.6654304    0.6718415    0.6807702    0.6877126    0.6921371
:EIG00211:       0.7056789    0.7226076    0.7329586    0.7407116    0.7476188
:EIG00216:       0.7502116    0.7531661    0.7588937    0.7677900    0.7774708
:EIG00221:       0.7788458    0.7834448    0.7862953    0.8240297    0.8433100
:EIG00226:       0.8490805    0.8512179    0.8564009    0.8580465    0.8606854
:EIG00231:       0.8635386    0.8745441    0.8887807    0.8907531    0.9021610
:EIG00236:       0.9163697    0.9296130    0.9373492    0.9460481    0.9506090
:EIG00241:       0.9525675    0.9620975    0.9748834    0.9776991    0.9882157
:EIG00246:       0.9913502    1.0015218    1.0066560    1.0115218    1.0142985
 
:EIG00251:       1.0193553    1.0218315    1.0362746    1.0504027    1.0599632
:EIG00256:       1.0675654    1.0783969    1.0820250    1.0853728    1.0922937
:EIG00261:       1.0929048    1.1010909    1.1047859    1.1086930    1.1129553
:EIG00266:       1.1140015    1.1194982    1.1250528    1.1275363    1.1343876
:EIG00271:       1.1398070    1.1426998    1.1501056    1.1528730    1.1566097
:EIG00276:       1.1633452    1.1636836    1.1690368    1.1716317    1.1740717
:EIG00281:       1.1778286    1.1853165    1.1884822    1.1944801    1.1952586
:EIG00286:       1.1971440    1.2028217    1.2101129    1.2230978    1.2239882
:EIG00291:       1.2329820    1.2389696    1.2427777    1.2446141    1.2475389
:EIG00296:       1.2510524    1.2599756    1.2635942    1.2668917    1.2742318
 
:EIG00301:       1.2752869    1.2773886    1.2907648    1.2912720    1.2999516
:EIG00306:       1.3050295    1.3145519    1.3192688    1.3260560    1.3279455
:EIG00311:       1.3440546    1.3535500    1.3588611    1.3608998    1.3805022
:EIG00316:       1.3838995    1.3865507    1.3894526    1.3909159    1.3985674
:EIG00321:       1.4058545    1.4225694    1.4258913    1.4347520    1.4400944
:EIG00326:       1.4446532    1.4514982    1.4562165    1.4639806    1.4700588
:EIG00331:       1.4709035    1.4774457    1.4865193    1.4875377    1.4958433
:EIG00336:       1.5018360    1.5063661    1.5096651    1.5159178    1.5201066
:EIG00341:       1.5210706    1.5280658    1.5302547    1.5326536    1.5427050
:EIG00346:       1.5478514    1.5500071    1.5576131    1.5643702    1.5646734
 
:EIG00351:       1.5770433    1.5800374    1.5845272    1.5872635    1.5888696
:EIG00356:       1.5935093    1.5971160    1.6061457    1.6102409    1.6175339
:EIG00361:       1.6209744    1.6258182    1.6288686    1.6408389    1.6481383
:EIG00366:       1.6554744    1.6665396    1.6717328    1.6733069    1.6780816
:EIG00371:       1.6833073    1.6854596    1.6911086    1.6929623    1.6964909
       ********************************************************

:KPT   :      NUMBER OF K-POINTS:   144
       Insulator, EF-inconsistency corrected
:GAP (global)   :  0.178080 Ry =     2.423 eV (accurate value if proper k-mesh)
         Bandranges (emin - emax) and occupancy:
:BAN00158: 158   -0.045401   -0.034050  2.00000000
:BAN00159: 159   -0.042647   -0.033732  2.00000000
:BAN00160: 160   -0.042647   -0.032291  2.00000000
:BAN00161: 161   -0.038586   -0.030317  2.00000000
:BAN00162: 162   -0.037669   -0.028340  2.00000000
:BAN00163: 163   -0.032265   -0.022628  2.00000000
:BAN00164: 164   -0.032265   -0.022628  2.00000000
:BAN00165: 165   -0.009472    0.054706  2.00000000
:BAN00166: 166    0.000041    0.056486  2.00000000
:BAN00167: 167    0.028102    0.107443  2.00000000
:BAN00168: 168    0.028102    0.145311  2.00000000
:BAN00169: 169    0.323391    0.427151  0.00000000
:BAN00170: 170    0.327050    0.427151  0.00000000
:BAN00171: 171    0.331050    0.433354  0.00000000
:BAN00172: 172    0.348870    0.433354  0.00000000
:BAN00173: 173    0.365161    0.450786  0.00000000
        Energy to separate low and high energystates:   -0.47699


:NOE  : NUMBER OF ELECTRONS          =  336.000

:FER  : F E R M I - ENERGY(TETRAH.M.)=   0.1453109436
:GMA  : POTENTIAL AND CHARGE CUT-OFF  12.00 Ry**.5

:POS001: ATOM   -1 X,Y,Z = 0.50000 0.50000 0.50000  MULT= 4  ZZ= 82.000  Pb        

       LMMAX 28
       LM=   0 0  2 0  2 1 -2 1  2 2 -2 2  4 0  4 1 -4 1  4 2 -4 2  4 3 -4 3  4 4 -4 4  6 0  6 1
        -6 1  6 2 -6 2  6 3 -6 3  6 4 -6 4  6 5 -6 5  6 6 -6 6

:CHA001: TOTAL VALENCE CHARGE INSIDE SPHERE   1 =  11.2919    (RMT=  2.5000 )
:PCS001: PARTIAL CHARGES SPHERE =  1 S,P,D,F,PX,PY,PZ,D-Z2,D-X2Y2,D-XY,D-XZ,D-YZ 
:QTL001: 1.3322 0.2718 9.6750 0.0108 0.0898 0.0904 0.0916 1.9432 1.9308 1.9418 1.9300 1.9292
        Q-s-low E-s-low   Q-p-low E-p-low   Q-d-low E-d-low   Q-f-low E-f-low
:EPL001:  0.0184 -0.9650    0.0089 -0.9567    9.5983 -0.9099    0.0010 -0.9819
        Q-s-hi  E-s-hi    Q-p-hi  E-p-hi    Q-d-hi  E-d-hi    Q-f-hi  E-f-hi 
:EPH001:  1.3138 -0.2376    0.2630 -0.1021    0.0767 -0.0673    0.0098 -0.0684

                      QXX         QXY         QYY         QZZ       UP TO R
:VZZ001:             0.64956     0.66900     0.14867    -0.79823       2.500

:POS002: ATOM   -2 X,Y,Z = 0.48491 0.94655 0.25000  MULT= 4  ZZ= 55.000  Cs        

       LMMAX 28
       LM=   0 0  1 1 -1 1  2 0  2 2 -2 2  3 1 -3 1  3 3 -3 3  4 0  4 2 -4 2  4 4 -4 4  5 1 -5 1
         5 3 -5 3  5 5 -5 5  6 0  6 2 -6 2  6 4 -6 4  6 6 -6 6

:CHA002: TOTAL VALENCE CHARGE INSIDE SPHERE   2 =  16.2713    (RMT=  2.5000 )
:PCS002: PARTIAL CHARGES SPHERE =  2 S,P,D,F,PX,PY,PZ,D-Z2,D-X2Y2,D-XY,D-XZ,D-YZ 
:QTL002: 1.7951 4.465210.0085 0.0021 1.4876 1.4886 1.4890 2.0012 2.0021 2.0009 2.0017 2.0025
        Q-s-low E-s-low   Q-p-low E-p-low   Q-d-low E-d-low   Q-f-low E-f-low
:EPL002:  1.7856 -1.3866    0.0022 -0.9550    9.9939 -4.8690    0.0002 -1.1355
        Q-s-hi  E-s-hi    Q-p-hi  E-p-hi    Q-d-hi  E-d-hi    Q-f-hi  E-f-hi 
:EPH002:  0.0096 -0.0865    4.4630 -0.4090    0.0146 -0.0612    0.0019 -0.0575

                      QXX         QXY         QYY         QZZ       UP TO R
:VZZ002:             0.57041     1.62158    -0.11260    -0.45781       2.500

:POS003: ATOM   -3 X,Y,Z = 0.56000 0.50750 0.25000  MULT= 4  ZZ= 35.000  Br        

       LMMAX 28
       LM=   0 0  1 1 -1 1  2 0  2 2 -2 2  3 1 -3 1  3 3 -3 3  4 0  4 2 -4 2  4 4 -4 4  5 1 -5 1
         5 3 -5 3  5 5 -5 5  6 0  6 2 -6 2  6 4 -6 4  6 6 -6 6

:CHA003: TOTAL VALENCE CHARGE INSIDE SPHERE   3 =  15.9235    (RMT=  2.5000 )
:PCS003: PARTIAL CHARGES SPHERE =  3 S,P,D,F,PX,PY,PZ,D-Z2,D-X2Y2,D-XY,D-XZ,D-YZ 
:QTL003: 1.7957 4.111410.0133 0.0021 1.3899 1.3938 1.3277 2.0104 2.0004 2.0001 2.0016 2.0009
        Q-s-low E-s-low   Q-p-low E-p-low   Q-d-low E-d-low   Q-f-low E-f-low
:EPL003:  1.7642 -0.9584    0.0062 -0.9144    9.9996 -4.3495    0.0004 -0.9894
        Q-s-hi  E-s-hi    Q-p-hi  E-p-hi    Q-d-hi  E-d-hi    Q-f-hi  E-f-hi 
:EPH003:  0.0314 -0.2560    4.1052 -0.0687    0.0137 -0.1265    0.0017 -0.1962

                      QXX         QXY         QYY         QZZ       UP TO R
:VZZ003:            -5.41644    -0.34763    -6.63174    12.04817       2.500

:POS004: ATOM   -4 X,Y,Z = 0.19962 0.70227 0.46752  MULT= 8  ZZ= 35.000  Br        

       LMMAX 49

:CHA004: TOTAL VALENCE CHARGE INSIDE SPHERE   4 =  15.9242    (RMT=  2.5000 )
:PCS004: PARTIAL CHARGES SPHERE =  4 S,P,D,F,PX,PY,PZ,D-Z2,D-X2Y2,D-XY,D-XZ,D-YZ 
:QTL004: 1.7955 4.112810.0129 0.0020 1.3625 1.3593 1.3909 2.0025 2.0017 2.0070 2.0007 2.0009
        Q-s-low E-s-low   Q-p-low E-p-low   Q-d-low E-d-low   Q-f-low E-f-low
:EPL004:  1.7647 -0.9582    0.0059 -0.9136    9.9996 -4.3496    0.0004 -0.9874
        Q-s-hi  E-s-hi    Q-p-hi  E-p-hi    Q-d-hi  E-d-hi    Q-f-hi  E-f-hi 
:EPH004:  0.0307 -0.2565    4.1068 -0.0685    0.0133 -0.1283    0.0017 -0.1871

                      QXX         QXY         QYY         QZZ       UP TO R
:VZZ004:             2.29358    -8.60487     3.27414    -5.56772       2.500

:CHA  : TOTAL VALENCE CHARGE INSIDE UNIT CELL =     336.000000

:SUM  : SUM OF EIGENVALUES =        -804.580670483


        1.ATOM      Pb                   19 CORE STATES
:1S 001: 1S               -6465.882088673 Ry
:2S 001: 2S               -1154.928441785 Ry
:2PP001: 2P*              -1108.919049245 Ry
:2P 001: 2P                -947.960333696 Ry
:3S 001: 3S                -276.717987622 Ry
:3PP001: 3P*               -255.992675420 Ry
:3P 001: 3P                -220.078890124 Ry
:3DD001: 3D*               -186.087216945 Ry
:3D 001: 3D                -178.446907810 Ry
:4S 001: 4S                 -62.152944269 Ry
:4PP001: 4P*                -53.188132035 Ry
:4P 001: 4P                 -44.397476701 Ry
:4DD001: 4D*                -29.816667345 Ry
:4D 001: 4D                 -28.176483590 Ry
:5S 001: 5S                  -9.928239805 Ry
:5PP001: 5P*                 -6.873113750 Ry
:5P 001: 5P                  -5.231731940 Ry
:4FF001: 4F*                 -9.304073919 Ry
:4F 001: 4F                  -8.934347064 Ry

        2.ATOM      Cs                   12 CORE STATES
       CORE-FORCE in mRy/a.u. = |F|      Fx             Fy             Fz
:FCO002:   2.ATOM      8.977277813110     -8.950697221803     -0.690315998192      0.000000000000

:1S 002: 1S               -2628.607025280 Ry
:2S 002: 2S                -411.680089883 Ry
:2PP002: 2P*               -387.242913423 Ry
:2P 002: 2P                -361.351130802 Ry
:3S 002: 3S                 -85.129807245 Ry
:3PP002: 3P*                -74.926409089 Ry
:3P 002: 3P                 -69.964534951 Ry
:3DD002: 3D*                -52.045277039 Ry
:3D 002: 3D                 -50.991945011 Ry
:4S 002: 4S                 -15.595323012 Ry
:4PP002: 4P*                -11.934469076 Ry
:4P 002: 4P                 -10.922522722 Ry

        3.ATOM      Br                    7 CORE STATES
       CORE-FORCE in mRy/a.u. = |F|      Fx             Fy             Fz
:FCO003:   3.ATOM    105.722291549266     40.152138234352     97.800862601705      0.000000000000

:1S 003: 1S                -977.968045146 Ry
:2S 003: 2S                -126.765405592 Ry
:2PP003: 2P*               -114.095449714 Ry
:2P 003: 2P                -110.604068216 Ry
:3S 003: 3S                 -16.939571661 Ry
[...]
:EIG00136:      -0.1727217   -0.1705760   -0.1655625   -0.0928969   -0.0782365
:EIG00141:      -0.0731417   -0.0716271   -0.0707091   -0.0652311   -0.0566438
:EIG00146:      -0.0462869   -0.0444900   -0.0433550   -0.0416450   -0.0392731
 
:EIG00151:      -0.0383359   -0.0352260   -0.0327756   -0.0312370   -0.0304791
:EIG00156:      -0.0296952   -0.0290394   -0.0222679   -0.0165858   -0.0151298
:EIG00161:      -0.0133872   -0.0095367   -0.0058157   -0.0036290    0.0081234
:EIG00166:       0.0242636    0.0620199    0.1078153    0.2499745    0.2522613
:EIG00171:       0.2604032    0.2808909    0.2938943    0.3102034    0.3928975
:EIG00176:       0.4682545    0.4718569    0.4765948    0.4807532    0.4858869
:EIG00181:       0.4869605    0.4900349    0.5051363    0.5114629    0.5192236
:EIG00186:       0.5226204    0.5280255    0.5293481    0.5348459    0.5361584
:EIG00191:       0.5394752    0.5421163    0.5502290    0.5622252    0.5685235
:EIG00196:       0.5713752    0.5921605    0.5949009    0.5994530    0.6068272
 
:EIG00201:       0.6096288    0.6144464    0.6201458    0.6315387    0.6334982
:EIG00206:       0.6538973    0.6604029    0.6632939    0.6750020    0.6842563
:EIG00211:       0.6967072    0.7055751    0.7208767    0.7222819    0.7330231
:EIG00216:       0.7356602    0.7420712    0.7529250    0.7594129    0.7717371
:EIG00221:       0.7729911    0.7798797    0.7803435    0.8043320    0.8241828
:EIG00226:       0.8294023    0.8351548    0.8394880    0.8434699    0.8459469
:EIG00231:       0.8517572    0.8601253    0.8634787    0.8750569    0.8925864
:EIG00236:       0.9034488    0.9106710    0.9195655    0.9304421    0.9354610
:EIG00241:       0.9401946    0.9436932    0.9489254    0.9642561    0.9705352
:EIG00246:       0.9715098    0.9730241    0.9889005    0.9983273    0.9996087
 
:EIG00251:       1.0040262    1.0052154    1.0207307    1.0319672    1.0408088
:EIG00256:       1.0446573    1.0544077    1.0651556    1.0702791    1.0705953
:EIG00261:       1.0770159    1.0832446    1.0873102    1.0918927    1.1005842
:EIG00266:       1.1044203    1.1101102    1.1111653    1.1144201    1.1208068
:EIG00271:       1.1249487    1.1280734    1.1378649    1.1384755    1.1423642
:EIG00276:       1.1475743    1.1496463    1.1527320    1.1554691    1.1603131
:EIG00281:       1.1613449    1.1707438    1.1731017    1.1776541    1.1803979
:EIG00286:       1.1809975    1.1889330    1.1926154    1.2082168    1.2095180
:EIG00291:       1.2193314    1.2238469    1.2276352    1.2297042    1.2342442
:EIG00296:       1.2363874    1.2419564    1.2439342    1.2522057    1.2584839
 
:EIG00301:       1.2593013    1.2651657    1.2682941    1.2776294    1.2837729
:EIG00306:       1.2888719    1.2944714    1.2974190    1.3025280    1.3041108
:EIG00311:       1.3261575    1.3329003    1.3385845    1.3428412    1.3572622
:EIG00316:       1.3615429    1.3651219    1.3671226    1.3707919    1.3790115
:EIG00321:       1.3882629    1.3992838    1.4029638    1.4094902    1.4159235
:EIG00326:       1.4221305    1.4289400    1.4330997    1.4436799    1.4459414
:EIG00331:       1.4502118    1.4586122    1.4650883    1.4664710    1.4735548
:EIG00336:       1.4813592    1.4860826    1.4923910    1.4972309    1.4991010
:EIG00341:       1.5030761    1.5053477    1.5066894    1.5117791    1.5188360
:EIG00346:       1.5295449    1.5336839    1.5419119    1.5437189    1.5499189
 
:EIG00351:       1.5569218    1.5606405    1.5654806    1.5683149    1.5716922
:EIG00356:       1.5750550    1.5830148    1.5912772    1.5920076    1.5997829
:EIG00361:       1.6061299    1.6072809
       ********************************************************

:KPT   :      NUMBER OF K-POINTS:   144
       Insulator, EF-inconsistency corrected
:GAP (global)   :  0.142159 Ry =     1.934 eV (accurate value if proper k-mesh)
         Bandranges (emin - emax) and occupancy:
:BAN00158: 158   -0.028310   -0.015413  2.00000000
:BAN00159: 159   -0.026748   -0.014683  2.00000000
:BAN00160: 160   -0.026748   -0.014683  2.00000000
:BAN00161: 161   -0.025108   -0.010888  2.00000000
:BAN00162: 162   -0.025108   -0.009537  2.00000000
:BAN00163: 163   -0.013017   -0.003101  2.00000000
:BAN00164: 164   -0.013017   -0.003101  2.00000000
:BAN00165: 165    0.000750    0.028957  2.00000000
:BAN00166: 166    0.002103    0.031687  2.00000000
:BAN00167: 167    0.006441    0.072284  2.00000000
:BAN00168: 168    0.006441    0.107815  2.00000000
:BAN00169: 169    0.249974    0.371796  0.00000000
:BAN00170: 170    0.252261    0.371796  0.00000000
:BAN00171: 171    0.260403    0.378322  0.00000000
:BAN00172: 172    0.276876    0.378322  0.00000000
:BAN00173: 173    0.290577    0.391336  0.00000000
        Energy to separate low and high energystates:   -0.23074


:NOE  : NUMBER OF ELECTRONS          =  336.000

:FER  : F E R M I - ENERGY(TETRAH.M.)=   0.1078153435
:GMA  : POTENTIAL AND CHARGE CUT-OFF  12.00 Ry**.5

:POS001: ATOM   -1 X,Y,Z = 0.50000 0.50000 0.50000  MULT= 4  ZZ= 82.000  Pb        

       LMMAX 28
       LM=   0 0  2 0  2 1 -2 1  2 2 -2 2  4 0  4 1 -4 1  4 2 -4 2  4 3 -4 3  4 4 -4 4  6 0  6 1
        -6 1  6 2 -6 2  6 3 -6 3  6 4 -6 4  6 5 -6 5  6 6 -6 6

:CHA001: TOTAL VALENCE CHARGE INSIDE SPHERE   1 =  11.4897    (RMT=  2.5000 )
:PCS001: PARTIAL CHARGES SPHERE =  1 S,P,D,F,PX,PY,PZ,D-Z2,D-X2Y2,D-XY,D-XZ,D-YZ 
:QTL001: 1.3740 0.3960 9.7046 0.0128 0.1315 0.1321 0.1324 1.9495 1.9364 1.9483 1.9355 1.9349
        Q-s-low E-s-low   Q-p-low E-p-low   Q-d-low E-d-low   Q-f-low E-f-low
:EPL001:  1.0847 -0.4831    0.0163 -0.8152    9.6351 -1.0810    0.0014 -0.8807
        Q-s-hi  E-s-hi    Q-p-hi  E-p-hi    Q-d-hi  E-d-hi    Q-f-hi  E-f-hi 
:EPH001:  0.2893  0.0107    0.3797 -0.1167    0.0695 -0.0541    0.0114 -0.0550

                      QXX         QXY         QYY         QZZ       UP TO R
:VZZ001:             0.37232     0.73737    -0.13616    -0.23616       2.500

:POS002: ATOM   -2 X,Y,Z = 0.48491 0.94655 0.25000  MULT= 4  ZZ= 55.000  Cs        

       LMMAX 28
       LM=   0 0  1 1 -1 1  2 0  2 2 -2 2  3 1 -3 1  3 3 -3 3  4 0  4 2 -4 2  4 4 -4 4  5 1 -5 1
         5 3 -5 3  5 5 -5 5  6 0  6 2 -6 2  6 4 -6 4  6 6 -6 6

:CHA002: TOTAL VALENCE CHARGE INSIDE SPHERE   2 =  16.2982    (RMT=  2.5000 )
:PCS002: PARTIAL CHARGES SPHERE =  2 S,P,D,F,PX,PY,PZ,D-Z2,D-X2Y2,D-XY,D-XZ,D-YZ 
:QTL002: 1.7968 4.487510.0112 0.0022 1.4949 1.4959 1.4967 2.0017 2.0028 2.0014 2.0022 2.0031
        Q-s-low E-s-low   Q-p-low E-p-low   Q-d-low E-d-low   Q-f-low E-f-low
:EPL002:  1.7867 -1.4186    4.3598 -0.4505    9.9940 -4.9051    0.0002 -1.1371
        Q-s-hi  E-s-hi    Q-p-hi  E-p-hi    Q-d-hi  E-d-hi    Q-f-hi  E-f-hi 
:EPH002:  0.0101 -0.0689    0.1277 -0.0564    0.0172 -0.0426    0.0020 -0.0351

                      QXX         QXY         QYY         QZZ       UP TO R
:VZZ002:             0.78920     2.19726    -0.07258    -0.71663       2.500

:POS003: ATOM   -3 X,Y,Z = 0.56000 0.50750 0.25000  MULT= 4  ZZ= 35.000  Br        

       LMMAX 28
       LM=   0 0  1 1 -1 1  2 0  2 2 -2 2  3 1 -3 1  3 3 -3 3  4 0  4 2 -4 2  4 4 -4 4  5 1 -5 1
         5 3 -5 3  5 5 -5 5  6 0  6 2 -6 2  6 4 -6 4  6 6 -6 6

:CHA003: TOTAL VALENCE CHARGE INSIDE SPHERE   3 =  15.7420    (RMT=  2.5000 )
:PCS003: PARTIAL CHARGES SPHERE =  3 S,P,D,F,PX,PY,PZ,D-Z2,D-X2Y2,D-XY,D-XZ,D-YZ 
:QTL003: 1.7821 3.942710.0135 0.0026 1.3479 1.3545 1.2403 2.0102 2.0003 2.0001 2.0018 2.0011
        Q-s-low E-s-low   Q-p-low E-p-low   Q-d-low E-d-low   Q-f-low E-f-low
:EPL003:  1.7698 -0.9240    0.0868 -0.5012   10.0041 -4.3051    0.0013 -0.6546
        Q-s-hi  E-s-hi    Q-p-hi  E-p-hi    Q-d-hi  E-d-hi    Q-f-hi  E-f-hi 
:EPH003:  0.0123 -0.0705    3.8559 -0.0512    0.0093 -0.0430    0.0013 -0.0866

                      QXX         QXY         QYY         QZZ       UP TO R
:VZZ003:            -9.35126    -0.24306   -11.26381    20.61508       2.500

:POS004: ATOM   -4 X,Y,Z = 0.19962 0.70227 0.46752  MULT= 8  ZZ= 35.000  Br        

       LMMAX 49

:CHA004: TOTAL VALENCE CHARGE INSIDE SPHERE   4 =  15.7410    (RMT=  2.5000 )
:PCS004: PARTIAL CHARGES SPHERE =  4 S,P,D,F,PX,PY,PZ,D-Z2,D-X2Y2,D-XY,D-XZ,D-YZ 
:QTL004: 1.7819 3.942310.0131 0.0025 1.2991 1.2937 1.3495 2.0025 2.0020 2.0068 2.0008 2.0009
        Q-s-low E-s-low   Q-p-low E-p-low   Q-d-low E-d-low   Q-f-low E-f-low
:EPL004:  1.7698 -0.9228    0.0844 -0.5006   10.0040 -4.3041    0.0012 -0.6589
        Q-s-hi  E-s-hi    Q-p-hi  E-p-hi    Q-d-hi  E-d-hi    Q-f-hi  E-f-hi 
:EPH004:  0.0121 -0.0722    3.8579 -0.0503    0.0091 -0.0456    0.0013 -0.0822

                      QXX         QXY         QYY         QZZ       UP TO R
:VZZ004:             4.10128   -14.69398     5.68602    -9.78730       2.500

:CHA  : TOTAL VALENCE CHARGE INSIDE UNIT CELL =     336.000000

:SUM  : SUM OF EIGENVALUES =        -808.490903012


        1.ATOM      Pb                   19 CORE STATES
:1S 001: 1S               -6466.072669970 Ry
:2S 001: 2S               -1155.108413181 Ry
:2PP001: 2P*              -1109.101048664 Ry
:2P 001: 2P                -948.140826247 Ry
:3S 001: 3S                -276.890876292 Ry
:3PP001: 3P*               -256.166015088 Ry
:3P 001: 3P                -220.251657337 Ry
:3DD001: 3D*               -186.260410681 Ry
:3D 001: 3D                -178.619885041 Ry
:4S 001: 4S                 -62.323446288 Ry
:4PP001: 4P*                -53.358667530 Ry
:4P 001: 4P                 -44.567938943 Ry
:4DD001: 4D*                -29.987030637 Ry
:4D 001: 4D                 -28.346813642 Ry
:5S 001: 5S                 -10.100840618 Ry
:5PP001: 5P*                 -7.046628912 Ry
:5P 001: 5P                  -5.406461437 Ry
:4FF001: 4F*                 -9.474160091 Ry
:4F 001: 4F                  -9.104433923 Ry

        2.ATOM      Cs                   12 CORE STATES
       CORE-FORCE in mRy/a.u. = |F|      Fx             Fy             Fz
:FCO002:   2.ATOM      8.770634751726     -4.976152015937      7.222322691661      0.000000000000

:1S 002: 1S               -2628.672502911 Ry
:2S 002: 2S                -411.735036100 Ry
:2PP002: 2P*               -387.299831661 Ry
:2P 002: 2P                -361.407390348 Ry
:3S 002: 3S                 -85.173359383 Ry
:3PP002: 3P*                -74.970438987 Ry
:3P 002: 3P                 -70.008135344 Ry
:3DD002: 3D*                -52.089856465 Ry
:3D 002: 3D                 -51.036359935 Ry
:4S 002: 4S                 -15.632288026 Ry
:4PP002: 4P*                -11.971312525 Ry
:4P 002: 4P                 -10.959187209 Ry

        3.ATOM      Br                    7 CORE STATES
       CORE-FORCE in mRy/a.u. = |F|      Fx             Fy             Fz
:FCO003:   3.ATOM     84.386501093219    -74.137324742306     40.308046923780      0.000000000000

:1S 003: 1S                -977.935022214 Ry
:2S 003: 2S                -126.728945716 Ry
:2PP003: 2P*               -114.059683235 Ry
:2P 003: 2P                -110.568201436 Ry
:3S 003: 3S                 -16.896982936 Ry
:3PP003: 3P*                -12.492420137 Ry
:3P 003: 3P                 -11.990129101 Ry

        4.ATOM      Br                    7 CORE STATES
       CORE-FORCE in mRy/a.u. = |F|      Fx             Fy             Fz
:FCO004:   4.ATOM    115.494021825615     78.384940735400     64.851513602120     54.671302589910

:1S 004: 1S                -977.933995249 Ry
:2S 004: 2S                -126.727909230 Ry
:2PP004: 2P*               -114.058647938 Ry
:2P 004: 2P                -110.567165948 Ry
:3S 004: 3S                 -16.895933291 Ry
:3PP004: 3P*                -12.491370059 Ry
:3P 004: 3P                 -11.989078562 Ry
:CINT001 Core Integral Atom   1   67.995189
:CINT002 Core Integral Atom   2   35.999909
:CINT003 Core Integral Atom   3   17.999988
:CINT004 Core Integral Atom   4   17.999988

       DENSITY AT NUCLEUS
        JATOM        VALENCE       SEMI-CORE          CORE           TOTAL
:RTO001:   1     2053.830803        0.000000  9911361.272140  9913415.102943
:RTO002:   2      321.449000        0.000000   438173.446663   438494.895662
:RTO003:   3       72.182677        0.000000    45839.375343    45911.558020
:RTO004:   4       72.173714        0.000000    45839.376104    45911.549818
     
       CHARGES OF NEW CHARGE DENSITY
:NTO   : INTERSTITIAL CHARGE =    35.952778
:NPC   : PW Pseudocharge     =    88.187061
:NTO001: CHARGE SPHERE  1    =    79.484920
:NTO002: CHARGE SPHERE  2    =    52.298077
:NTO003: CHARGE SPHERE  3    =    33.741981
:NTO004: CHARGE SPHERE  4    =    33.740944

:NEC01: NUCLEAR AND ELECTRONIC CHARGE    968.00000   967.98025
     
       CHARGES OF OLD CHARGE DENSITY
:OTO   : INTERSTITIAL CHARGE =    35.973360
:OPC   : PW Pseudocharge     =    88.234867
:OTO001: CHARGE SPHERE  1    =    79.485054
:OTO002: CHARGE SPHERE  2    =    52.298084
:OTO003: CHARGE SPHERE  3    =    33.741868
:OTO004: CHARGE SPHERE  4    =    33.740827

:NEC02: NUCLEAR AND ELECTRONIC CHARGE    968.00000   968.00000
     
       CONVERGENCE TEST
:DTO001: DIFFERENCE IN SPHERE  1 =  0.0001053
:DTO002: DIFFERENCE IN SPHERE  2 =  0.0000229
:DTO003: DIFFERENCE IN SPHERE  3 =  0.0000577
:DTO004: DIFFERENCE IN SPHERE  4 =  0.0000598

:DIS  :  CHARGE DISTANCE       ( 0.0001053 for atom    1 spin 1)      0.0000611
 PW Mixed is         1449
 
******************************************************
* MULTISECANT MIXING VER9 RELEASE 10.4.0              *
* Standard Mode with controls                        *
* Fixed density scale                                *
* Regularization       1.000E-04                     *
* Trust Upper Limit    5.000E+00                     *
* Max Number of Memory Steps    8                    *
******************************************************
 
:PWTMP   3.9481E+03  2.5000E+03  5.2571E+03
:PLANE:  PW TOTAL      6.7974 DISTAN   2.30E-04  3.39E-03 %
:CHARG:  CLM/ATOM   1115.9434 DISTAN   7.72E-05  6.91E-06 %
 
Step History
        DMIX         DMIXT        Red     Pred      Trust     Lambda    MagRel    MagAbs     Beta
  4   1.2702E-01   4.5505E-02  8.97E-01  9.44E-01  3.25E-01  1.11E+00  1.16E-01  1.82E-01  1.00E+00
  5   3.0877E-01   1.1664E-01  8.05E-01  8.15E-01  6.06E-01  1.16E+00  1.69E-01  2.39E-01  1.00E+00
  6   3.5000E-01   1.8342E-01  6.80E-01  6.82E-01  1.02E+00  1.09E+00  2.76E-01  3.15E-01  1.00E+00
  7   3.3364E-01   3.0505E-01  2.97E-01  3.13E-01  1.85E+00  1.03E+00  6.73E-01  5.21E-01  1.00E+00
  8   2.6620E-01   2.6620E-01  7.66E-02  1.48E-01  7.48E+00  1.12E+00  9.83E-01  2.26E-01  1.00E+00
  9   2.4783E-01   2.4783E-01  4.31E-01  6.63E-01  1.50E+01  1.22E+00  4.08E-01  7.19E-03  1.00E+00
 10   3.4003E-01   3.4003E-01  4.63E-01  7.40E-01  1.88E+01  6.91E-01  5.39E-01  4.10E-03  1.00E+00
 11   3.5000E-01   3.5000E-01  2.69E-01  4.37E-01  2.25E+01  9.27E-01  8.16E-01  2.87E-03  1.00E+00
 12   3.5000E-01   3.5000E-01 -1.00E+00  5.00E-01  2.25E+01  1.00E+00  7.42E-01  7.03E-04  1.00E+00
:JACOBIANS    2.054E+00   2.411E+00
  
:NORMS:  1/Froebius, Min, Max, Used   0.8967E+00  0.6774E+00  0.1027E+01  0.9409E+00
:INFO :  Number of Memory Steps    8 Skipping    3
:INFO :  SLambda=    1.3903603000  Max    1.3903603000
:PREDicted Charge, CTotal, PW Trust    9.628E-05   1.247E-03   1.500E-03
:PREDicted DMix, Beta, BLim   6.0184E-01  1.1947E+00  1.2698E+01

Eigenvalues, unscaled except for SY+YY
   #     SY Real        SY Imag          SS             YY         SY+YY Real      SY+YY Imag
   1   3.688732E+00   0.000000E+00   3.653412E+00   4.126482E+00   9.255231E+00   0.000000E+00
   2   2.214578E+00   0.000000E+00   2.235527E+00   2.335141E+00   5.401291E+00   0.000000E+00
   3   4.820797E-01   0.000000E+00   3.243974E-01   9.059355E-01   1.591410E+00   0.000000E+00
   4   3.480967E-01   0.000000E+00   1.888960E-01   5.360528E-01   1.010062E+00   0.000000E+00
   5   5.031726E-02   0.000000E+00   2.907000E-02   9.016114E-02   1.676185E-01   0.000000E+00
   6   2.429936E-03   0.000000E+00   1.060934E-03   5.429190E-03   8.894170E-03   0.000000E+00
   7   2.449751E-05   0.000000E+00   5.350380E-04   7.157539E-04   1.165475E-04   0.000000E+00
   8   6.641989E-04   0.000000E+00   7.944241E-06   8.213505E-05   1.644084E-03   0.000000E+00
 
:INFO :  Singular value  9.276E+00 Weight  1.000E+00 Projection  3.190E-05
:INFO :  Singular value  5.404E+00 Weight  1.000E+00 Projection -2.140E-06
:INFO :  Singular value  1.602E+00 Weight  1.000E+00 Projection -1.530E-04
:INFO :  Singular value  1.001E+00 Weight  1.000E+00 Projection  9.330E-05
:INFO :  Singular value  1.675E-01 Weight  1.000E+00 Projection  9.272E-04
:INFO :  Singular value  8.894E-03 Weight  9.979E-01 Projection -4.541E-05
:INFO :  Singular value  1.644E-03 Weight  9.408E-01 Projection -5.004E-03
:INFO :  Singular value  1.165E-04 Weight  7.384E-02 Projection  4.494E-04
:RANK :  ACTIVE   7.01/8  =  87.66 % ; YY RANK   6.78/8  =  84.79 %
 
:BLIM :  VZERO Control Off
:TRUST:  Step 2.25E+01  Charge 5.65E-02 (e) CTO  1.76E-01 (e) PW  2.32E+00 (e)
:DIRM :  MEMORY  8/8  SCALE   1.000 RED  0.41 PRED  0.50 NEXT  0.42 
:TRAVE:  Charge 2.03E-03 (e) CTO  4.42E-03 (e) PW  5.18E-02 (e)
:DIRP :  |MSR1|= 1.595E-04 |PRATT|= 2.303E-04 ANGLE=   8.1 DEGREES
:DIRQ :  |MSR1|= 2.376E-04 |PRATT|= 3.086E-04 ANGLE=  24.9 DEGREES
:DIRT :  |MSR1|= 2.861E-04 |PRATT|= 3.851E-04 ANGLE=  21.0 DEGREES
:MIX  :   MSE1   REGULARIZATION:  4.13E-04 GREED: 0.35000  Newton 1.00  0.7431                
     
       CHARGES OF MIXED CHARGE DENSITY
:CTO   : INTERSTITIAL CHARGE =    35.972842
:CPC   : PW Pseudocharge     =    88.235423
:CTO001: CHARGE SPHERE  1    =    79.484977
:CTO002: CHARGE SPHERE  2    =    52.298082
:CTO003: CHARGE SPHERE  3    =    33.741937
:CTO004: CHARGE SPHERE  4    =    33.740897

:NEC03: NUCLEAR AND ELECTRONIC CHARGE    968.00000   968.00000

PW CHANGE     H    K    L      Current       Change    Residue
:PTO001:      0    0    0  2.36268858E-02  7.169E-09 -3.425E-08
:PTO006:     -1    0   -1 -2.05676691E-03 -1.011E-08 -8.980E-09
:PTO007:      0    0   -2  2.57630808E-03 -1.925E-07 -2.492E-07
:PTO008:     -1   -1    0  4.93196867E-03 -4.034E-07 -5.391E-07
:PTO009:     -1   -1   -1 -8.91156871E-03 -2.568E-08  3.088E-08
:PTO012:      0   -2    0  5.94654915E-03 -2.502E-07 -3.967E-07
:PTO013:     -1   -1   -2  1.85303060E-02 -1.170E-06 -1.878E-06
:PTO014:     -2    0    0  5.88473658E-03 -2.521E-07 -4.116E-07
:PTO015:      0   -2   -1  4.69050924E-03 -4.332E-08 -1.259E-07
:PTO018:     -1   -2    0 -8.74787075E-03 -2.400E-07 -3.542E-07
:PTO019:     -2   -1    0  9.58207588E-03  2.645E-07  3.883E-07
:PTO021:     -1   -2   -1  9.93741173E-03  3.047E-07  4.428E-07

:ENE  : ********** TOTAL ENERGY IN Ry =      -292312.16929887

       TOTAL FORCE IN mRy/a.u. = |F|     Fx             Fy             Fz     with/without FOR in case.in2
:FOR001:   1.ATOM          0.000          0.000          0.000          0.000 partial forces
:FOR002:   2.ATOM          1.297         -0.491         -1.200          0.000 partial forces
:FOR003:   3.ATOM         26.998         24.786        -10.703          0.000 partial forces
:FOR004:   4.ATOM         36.461        -24.551        -20.458        -17.554 partial forces
       TOTAL FORCE WITH RESPECT TO GLOBAL CARTESIAN COORDINATES:
:FCA001:   1.ATOM                         0.000          0.000          0.000 partial forces
:FCA002:   2.ATOM                        -0.491         -1.200          0.000 partial forces
:FCA003:   3.ATOM                        24.786        -10.703          0.000 partial forces
:FCA004:   4.ATOM                       -24.551        -20.458        -17.554 partial forces
       TOTAL FORCE WITH RESPECT TO THE GLOBAL COORDINATE SYSTEM:
:FGL001:   1.ATOM                 0.000000000     0.000000000     0.000000000 partial forces
:FGL002:   2.ATOM                -0.491123463    -1.200486004     0.000000000 partial forces
:FGL003:   3.ATOM                24.785673800   -10.703177831     0.000000000 partial forces
:FGL004:   4.ATOM               -24.551099521   -20.458440724   -17.553688344 partial forces
