
:LABEL1: Calculations in /home/cmueller/wien/FZU/src/perovskite/rkmax8_1000_gga
:LABEL2: on cv036 at Sat Jun 22 02:56:21 PM CEST 2024
:LABEL3: using WIEN2k_19.1 (Release 25/6/2019) in /home/cmueller/WIENROOT
:LABEL4: using the command: run_lapw
 Flat Integration
 New Mode for Coulomb Integral
 Consistent 3/8+Simpson combinations
 Extension of core to zero
 LDM version in phi
 Fifth-order quadrature in outwin


            ---------
:ITE001:  1. ITERATION
            ---------

:NATO :    4 INDEPENDENT AND   20 TOTAL ATOMS IN UNITCELL
       SUBSTANCE: blebleble                                                   

       LATTICE                      = P   
:POT  : POTENTIAL OPTION EX_PBE EC_PBE VX_PBE VC_PBE
:LAT  : LATTICE CONSTANTS= 15.19415 15.66734 22.08372    1.571    1.571    1.571
:VOL  : UNIT CELL VOLUME =    5257.07306
       MODE OF CALCULATION IS       = RELA
       NON-SPINPOLARIZED CALCULATION
:IFFT  : FFT-parameters:  120  120  180 Factor: 2.00


   CONVERGENCE PARAMETER FOR PSEUDOCHARGE: NCON=  9
   MAXIMAL VALUE OF RMT(JATOM)*ABSK(NKK) : RK  =29.99804


:VKCOUL :  VK-COUL convergence: 0.423E-07
       ATOMNUMBER=  1 Pb         VCOUL-ZERO =  0.10897E+00
:EFG001:                        EFG         =     0.00590   *10**21  V / m**2
                               V20  TOT/SRF=     0.00113     0.00195
                               V22  TOT/SRF=    -0.00027    -0.00077
                               V22M TOT/SRF=    -0.00029    -0.00093
                               V21  TOT/SRF=     0.00242     0.00330
                               V21M TOT/SRF=    -0.00473    -0.00516

             -0.00092   -0.00029    0.00242       -0.00105    0.00000    0.00000
             -0.00029   -0.00038   -0.00473        0.00000    0.00590    0.00000
              0.00242   -0.00473    0.00130        0.00000    0.00000   -0.00485

         MAIN DIRECTIONS OF THE EFG   1.0000  0.3879 -0.5274
                                      0.5164 -0.7730  1.0000
                                      0.0112  1.0000  0.9776
:ANG001:  ANGLE WITH OLD X-AXIS =        33.2

:ETA001:                         ASYMM. ETA =     0.64411


       ATOMNUMBER=  2 Cs         VCOUL-ZERO = -0.49697E-01
:EFG002:                        EFG         =     0.00079   *10**21  V / m**2
                               V20  TOT/SRF=    -0.00038    -0.00033
                               V22  TOT/SRF=    -0.00031    -0.00059
                               V22M TOT/SRF=    -0.00049    -0.00143
                               V21  TOT/SRF=     0.00000     0.00000
                               V21M TOT/SRF=     0.00000     0.00000

             -0.00009   -0.00049    0.00000       -0.00036    0.00000    0.00000
             -0.00049    0.00053    0.00000        0.00000    0.00079    0.00000
              0.00000    0.00000   -0.00043        0.00000    0.00000   -0.00043

         MAIN DIRECTIONS OF THE EFG   1.0000 -0.5459  0.0000
                                      0.5459  1.0000  0.0000
                                      0.0000  0.0000  1.0000
:ANG002:  ANGLE WITH OLD X-AXIS =        28.6

:ETA002:                         ASYMM. ETA =     0.09356


       ATOMNUMBER=  3 Br         VCOUL-ZERO =  0.28031E+00
:EFG003:                        EFG         =    -0.02231   *10**21  V / m**2
                               V20  TOT/SRF=     0.01925     0.05961
                               V22  TOT/SRF=     0.00410     0.00562
                               V22M TOT/SRF=    -0.01042    -0.01150
                               V21  TOT/SRF=     0.00000     0.00000
                               V21M TOT/SRF=     0.00000     0.00000

             -0.00702   -0.01042    0.00000        0.00008    0.00000    0.00000
             -0.01042   -0.01521    0.00000        0.00000   -0.02231    0.00000
              0.00000    0.00000    0.02223        0.00000    0.00000    0.02223

         MAIN DIRECTIONS OF THE EFG   1.0000  0.6813  0.0000
                                     -0.6813  1.0000  0.0000
                                      0.0000  0.0000  1.0000
:ANG003:  ANGLE WITH OLD X-AXIS =        34.3

:ETA003:                         ASYMM. ETA =     0.99277


       ATOMNUMBER=  4 Br         VCOUL-ZERO =  0.28025E+00
:EFG004:                        EFG         =     0.02212   *10**21  V / m**2
                               V20  TOT/SRF=    -0.00625    -0.02554
                               V22  TOT/SRF=    -0.00319    -0.00440
                               V22M TOT/SRF=    -0.01622    -0.04902
                               V21  TOT/SRF=    -0.00456    -0.00425
                               V21M TOT/SRF=     0.00611     0.00781

              0.00042   -0.01622   -0.00456        0.02212    0.00000    0.00000
             -0.01622    0.00679    0.00611        0.00000   -0.01296    0.00000
             -0.00456    0.00611   -0.00722        0.00000    0.00000   -0.00916

         MAIN DIRECTIONS OF THE EFG  -0.8182  1.0000  0.2387
                                      1.0000  0.8580 -0.1399
                                      0.3353 -0.1186  1.0000
:ANG004:  ANGLE WITH OLD X-AXIS =       128.5

:ETA004:                         ASYMM. ETA =     0.17181


     HELLMANN-FEYNMAN-FORCE IN mRy/a.u. = |F|  Fx       Fy             Fz
:FHF001:   1.ATOM      0.000000000000      0.000000000000      0.000000000000      0.000000000000

     HELLMANN-FEYNMAN-FORCE IN mRy/a.u. = |F|  Fx       Fy             Fz
:FHF002:   2.ATOM     13.212661606233     13.207363767740      0.374124347533      0.000000000000

     HELLMANN-FEYNMAN-FORCE IN mRy/a.u. = |F|  Fx       Fy             Fz
:FHF003:   3.ATOM    220.113963888524    -93.045637347661   -199.480992751907      0.000000000000

     HELLMANN-FEYNMAN-FORCE IN mRy/a.u. = |F|  Fx       Fy             Fz
:FHF004:   4.ATOM    174.202709980683     55.580955909951    107.026757789216    125.708450876934

:FIT001: LUSE= 13 SIGMA OF V-XC FIT FOR ATOM  1  0.7571362E-03
:FIT001: LUSE= 13 SIGMA OF V-XC FIT FOR ATOM  1  0.7571362E-03
:FIT002: LUSE= 13 SIGMA OF V-XC FIT FOR ATOM  2  0.1645418E-04
:FIT002: LUSE= 13 SIGMA OF V-XC FIT FOR ATOM  2  0.1645418E-04
:FIT003: LUSE= 13 SIGMA OF V-XC FIT FOR ATOM  3  0.7450639E-03
:FIT003: LUSE= 13 SIGMA OF V-XC FIT FOR ATOM  3  0.7450639E-03
:FIT004: LUSE= 13 SIGMA OF V-XC FIT FOR ATOM  4  0.6626845E-03
:FIT004: LUSE= 13 SIGMA OF V-XC FIT FOR ATOM  4  0.6626845E-03
:DEN  : DENSITY INTEGRAL  =       -114061.79163689   (Ry)
       ELS_POTENTIAL_AT Z=0 and Z=0.5:  -0.57564  -0.57564
       ELS_POTENTIAL_AT Y=0 and Y=0.5:  -0.47943  -0.47943
:VZERO:v0,v0c,v0x  -1.32226  -0.57564  -0.74662 v5,v5c,v5x  -1.32226  -0.57564  -0.74662
:VZERY:v0,v0c,v0x  -1.13920  -0.47943  -0.65976 v5,v5c,v5x  -1.13920  -0.47943  -0.65976
:VZERX:v0,v0c,v0x  -1.13400  -0.48141  -0.65258 v5,v5c,v5x  -1.13400  -0.48141  -0.65258
:LMAX-WF:   10   Non-Spherical LMAX:   4

          ATOMIC SPHERE DEPENDENT PARAMETERS FOR ATOM  Pb        
:e__0001: OVERALL ENERGY PARAMETER IS    0.3000
          OVERALL BASIS SET ON ATOM IS LAPW
:E2_0001: E( 2)=    0.7000
             APW+lo
:E2_0001: E( 2)=   -0.9369   E(BOTTOM)=   -1.175   E(TOP)=   -0.699  2  3   123
             LOCAL ORBITAL
:E0_0001: E( 0)=    0.3000
             APW+lo
:E1_0001: E( 1)=    0.3000
             APW+lo

          ATOMIC SPHERE DEPENDENT PARAMETERS FOR ATOM  Cs        
:e__0002: OVERALL ENERGY PARAMETER IS    0.3000
          OVERALL BASIS SET ON ATOM IS LAPW
:E2_0002: E( 2)=    0.3000
             APW+lo
:E2_0002: E( 2)=   -4.8572   E(BOTTOM)=   -4.869   E(TOP)=   -4.846  1  2   120
             LOCAL ORBITAL
:E0_0002: E( 0)=    0.7000
             APW+lo
:E0_0002: E( 0)=   -1.3662   E(BOTTOM)=   -2.049   E(TOP)=   -0.683  4  5   169
             LOCAL ORBITAL
:E1_0002: E( 1)=    0.7000
             APW+lo
:E1_0002: E( 1)=   -0.1934   E(BOTTOM)=   -1.166   E(TOP)=    0.779  3  4   199
             LOCAL ORBITAL

          ATOMIC SPHERE DEPENDENT PARAMETERS FOR ATOM  Br        
:e__0003: OVERALL ENERGY PARAMETER IS    0.3000
          OVERALL BASIS SET ON ATOM IS LAPW
:E2_0003: E( 2)=    0.3000
             APW+lo
:E2_0003: E( 2)=   -4.3424   E(BOTTOM)=   -4.346   E(TOP)=   -4.339  1  1   115
             LOCAL ORBITAL
:E0_0003: E( 0)=    0.7000
             APW+lo
:E0_0003: E( 0)=   -0.9471   E(BOTTOM)=   -1.512   E(TOP)=   -0.382  3  4   158
             LOCAL ORBITAL
:E1_0003: E( 1)=    0.3000
             APW+lo

          ATOMIC SPHERE DEPENDENT PARAMETERS FOR ATOM  Br        
:e__0004: OVERALL ENERGY PARAMETER IS    0.3000
          OVERALL BASIS SET ON ATOM IS LAPW
:E2_0004: E( 2)=    0.3000
             APW+lo
:E2_0004: E( 2)=   -4.3426   E(BOTTOM)=   -4.346   E(TOP)=   -4.339  1  1   119
             LOCAL ORBITAL
:E0_0004: E( 0)=    0.7000
             APW+lo
:E0_0004: E( 0)=   -0.9473   E(BOTTOM)=   -1.512   E(TOP)=   -0.382  3  4   153
             LOCAL ORBITAL
:E1_0004: E( 1)=    0.3000
             APW+lo

       K=   0.04545   0.04545   0.07143            1
:RKM  : MATRIX SIZE  3202LOs: 308  RKM= 8.00  WEIGHT= 8.00  PGR:    
       EIGENVALUES ARE:
:EIG00001:      -4.8548200   -4.8548141   -4.8548134   -4.8548128   -4.8548106
:EIG00006:      -4.8548081   -4.8548059   -4.8548043   -4.8547960   -4.8547950
:EIG00011:      -4.8547905   -4.8547849   -4.8547725   -4.8547714   -4.8547649
:EIG00016:      -4.8547627   -4.8547597   -4.8547575   -4.8547545   -4.8547540
:EIG00021:      -4.3423764   -4.3423759   -4.3423755   -4.3423752   -4.3423743
:EIG00026:      -4.3423732   -4.3423725   -4.3423721   -4.3422796   -4.3422785
:EIG00031:      -4.3422771   -4.3422757   -4.3421089   -4.3421078   -4.3421071
:EIG00036:      -4.3421057   -4.3421048   -4.3421039   -4.3421034   -4.3421031
:EIG00041:      -4.3420446   -4.3420421   -4.3420414   -4.3420396   -4.3420384
:EIG00046:      -4.3420380   -4.3420371   -4.3420362   -4.3420357   -4.3420353
 
:EIG00051:      -4.3420346   -4.3420344   -4.3417481   -4.3417479   -4.3417476
:EIG00056:      -4.3417466   -4.3416049   -4.3416037   -4.3416036   -4.3416022
:EIG00061:      -4.3416018   -4.3416010   -4.3416006   -4.3415973   -4.3415592
:EIG00066:      -4.3415586   -4.3415566   -4.3415558   -4.3415541   -4.3415527
:EIG00071:      -4.3415526   -4.3415513   -4.3414274   -4.3414263   -4.3414262
:EIG00076:      -4.3414243   -4.3413539   -4.3413511   -4.3413475   -4.3413466
:EIG00081:      -1.3724880   -1.3723242   -1.3721425   -1.3720366   -0.9690499
:EIG00086:      -0.9687368   -0.9686496   -0.9681717   -0.9679529   -0.9663674
:EIG00091:      -0.9487160   -0.9484656   -0.9481941   -0.9480380   -0.9476627
:EIG00096:      -0.9472395   -0.9062956   -0.9059990   -0.9056880   -0.8998897
 
:EIG00101:      -0.8998635   -0.8997592   -0.8996275   -0.8995003   -0.8994743
:EIG00106:      -0.8994527   -0.8993871   -0.8990423   -0.8989914   -0.8988290
:EIG00111:      -0.8987023   -0.8956773   -0.8838167   -0.8723378   -0.8721636
:EIG00116:      -0.8719050   -0.4149271   -0.4125926   -0.4121202   -0.4108059
:EIG00121:      -0.4100501   -0.4096319   -0.4090635   -0.4081658   -0.4079630
:EIG00126:      -0.4076920   -0.4071859   -0.4065428   -0.4058066   -0.3660864
:EIG00131:      -0.3255268   -0.2641110   -0.1486316   -0.1477487   -0.1447501
:EIG00136:      -0.1406547   -0.1388228   -0.1298527   -0.0990107   -0.0812980
:EIG00141:      -0.0783657   -0.0768907   -0.0755097   -0.0683366   -0.0595111
:EIG00146:      -0.0540995   -0.0517490   -0.0492511   -0.0464812   -0.0441083
 
:EIG00151:      -0.0429122   -0.0409388   -0.0403081   -0.0390191   -0.0324080
:EIG00156:      -0.0276739   -0.0272034   -0.0267588   -0.0251933   -0.0237551
:EIG00161:      -0.0225736   -0.0202927   -0.0186896   -0.0184923   -0.0005587
:EIG00166:       0.0557536    0.1044468    0.1580971    0.3395320    0.3432561
:EIG00171:       0.3470213    0.3719818    0.3852443    0.4028115    0.4040776
:EIG00176:       0.4829788    0.4886238    0.4962055    0.5009645    0.5304444
:EIG00181:       0.5316351    0.5361894    0.5445696    0.5481515    0.5496273
:EIG00186:       0.5520656    0.5573042    0.5586059    0.5739105    0.5776243
:EIG00191:       0.5778728    0.5849325    0.5992169    0.6037339    0.6067408
:EIG00196:       0.6133959    0.6142398    0.6190996    0.6216901    0.6301436
 
:EIG00201:       0.6362324    0.6411544    0.6490079    0.6572141    0.6592498
:EIG00206:       0.6757036    0.6821834    0.6907630    0.6983473    0.7024787
:EIG00211:       0.7157214    0.7322429    0.7424090    0.7495256    0.7569862
:EIG00216:       0.7599445    0.7621200    0.7674131    0.7768875    0.7866224
:EIG00221:       0.7875932    0.7918742    0.7950829    0.8330270    0.8512626
:EIG00226:       0.8566660    0.8597657    0.8642234    0.8654612    0.8684077
:EIG00231:       0.8724466    0.8817333    0.8962963    0.8982630    0.9082987
:EIG00236:       0.9246106    0.9366314    0.9436338    0.9513516    0.9560731
:EIG00241:       0.9581014    0.9675837    0.9778464    0.9844982    0.9954018
:EIG00246:       0.9976255    1.0080917    1.0109899    1.0124377    1.0147609
 
:EIG00251:       1.0243102    1.0266997    1.0388937    1.0560284    1.0625088
:EIG00256:       1.0695267    1.0725264    1.0805425    1.0822553    1.0855320
:EIG00261:       1.0878845    1.0918753    1.0940739    1.0983508    1.1038393
:EIG00266:       1.1071855    1.1130629    1.1184613    1.1209877    1.1264797
:EIG00271:       1.1305639    1.1344469    1.1394684    1.1426647    1.1513652
:EIG00276:       1.1557953    1.1590411    1.1620952    1.1647678    1.1692995
:EIG00281:       1.1726606    1.1750311    1.1784546    1.1805834    1.1849266
:EIG00286:       1.1894212    1.1953957    1.1982786    1.2012102    1.2075480
:EIG00291:       1.2142294    1.2171233    1.2200986    1.2253746    1.2282397
:EIG00296:       1.2304507    1.2365004    1.2420668    1.2440371    1.2548426
 
:EIG00301:       1.2627505    1.2649891    1.2700447    1.2739160    1.2769256
:EIG00306:       1.2821013    1.2900661    1.2982717    1.3034805    1.3076812
:EIG00311:       1.3104886    1.3167918    1.3217606    1.3338954    1.3368993
:EIG00316:       1.3443126    1.3513775    1.3566716    1.3616957    1.3685958
:EIG00321:       1.3725042    1.3800515    1.3830323    1.3849893    1.3877336
:EIG00326:       1.3936207    1.3981037    1.4091471    1.4113229    1.4180023
:EIG00331:       1.4285391    1.4350224    1.4359292    1.4426750    1.4503296
:EIG00336:       1.4531724    1.4540084    1.4551429    1.4598000    1.4651066
:EIG00341:       1.4674034    1.4682550    1.4729718    1.4798899    1.4837374
:EIG00346:       1.4871950    1.4960525    1.5032098    1.5058585    1.5096326
 
:EIG00351:       1.5127012    1.5181446    1.5221889    1.5294419    1.5446665
:EIG00356:       1.5466426    1.5586135    1.5610790    1.5717737    1.5768880
:EIG00361:       1.5792203    1.5846032    1.5953875    1.5965648    1.6107491
:EIG00366:       1.6121281    1.6150452    1.6238126    1.6288034    1.6427290
:EIG00371:       1.6454307    1.6482757    1.6514962    1.6576171    1.6640734
:EIG00376:       1.6657018    1.6669636    1.6788153    1.6840234    1.6940626
:EIG00381:       1.6971699    1.7063556    1.7077818    1.7113829    1.7200291
:EIG00386:       1.7207898    1.7237921    1.7325959    1.7360478    1.7391686
:EIG00391:       1.7406653    1.7465414    1.7485304    1.7503576    1.7581343
:EIG00396:       1.7627630    1.7707141    1.7743745    1.7822759    1.7901077
 
:EIG00401:       1.7945852    1.7971399    1.8017550    1.8047954    1.8132118
:EIG00406:       1.8154560    1.8174173    1.8211826    1.8247028    1.8278293
:EIG00411:       1.8299215    1.8343394    1.8424901    1.8557884    1.8673071
:EIG00416:       1.8677055    1.8718309    1.8735528    1.8823441    1.8892448
:EIG00421:       1.8935693    1.8977919    1.9029962    1.9081418    1.9091931
:EIG00426:       1.9172112    1.9199075    1.9237474    1.9278744    1.9342652
:EIG00431:       1.9378344    1.9418561    1.9469216    1.9484145    1.9592768
:EIG00436:       1.9657357    1.9738290    1.9762428    1.9838607    1.9882341
:EIG00441:       1.9910893    1.9983014
       ********************************************************

:KPT   :      NUMBER OF K-POINTS:   144
       Insulator, EF-inconsistency corrected
:GAP (global)   :  0.181435 Ry =     2.469 eV (accurate value if proper k-mesh)
         Bandranges (emin - emax) and occupancy:
:BAN00158: 158   -0.036753   -0.025419  2.00000000
:BAN00159: 159   -0.033743   -0.025183  2.00000000
:BAN00160: 160   -0.033743   -0.023755  2.00000000
:BAN00161: 161   -0.029438   -0.021810  2.00000000
:BAN00162: 162   -0.028568   -0.019765  2.00000000
:BAN00163: 163   -0.023699   -0.014225  2.00000000
:BAN00164: 164   -0.023621   -0.014225  2.00000000
:BAN00165: 165   -0.000559    0.066907  2.00000000
:BAN00166: 166    0.010257    0.068665  2.00000000
:BAN00167: 167    0.040692    0.120214  2.00000000
:BAN00168: 168    0.040692    0.158097  2.00000000
:BAN00169: 169    0.339532    0.441129  0.00000000
:BAN00170: 170    0.343256    0.441129  0.00000000
:BAN00171: 171    0.347021    0.447499  0.00000000
:BAN00172: 172    0.364886    0.447499  0.00000000
:BAN00173: 173    0.381468    0.465280  0.00000000
        Energy to separate low and high energystates:   -0.46493


:NOE  : NUMBER OF ELECTRONS          =  336.000

:FER  : F E R M I - ENERGY(TETRAH.M.)=   0.1580970604
:GMA  : POTENTIAL AND CHARGE CUT-OFF  12.00 Ry**.5

:POS001: ATOM   -1 X,Y,Z = 0.50000 0.50000 0.50000  MULT= 4  ZZ= 82.000  Pb        

       LMMAX 28
       LM=   0 0  2 0  2 1 -2 1  2 2 -2 2  4 0  4 1 -4 1  4 2 -4 2  4 3 -4 3  4 4 -4 4  6 0  6 1
        -6 1  6 2 -6 2  6 3 -6 3  6 4 -6 4  6 5 -6 5  6 6 -6 6

:CHA001: TOTAL VALENCE CHARGE INSIDE SPHERE   1 =  11.3234    (RMT=  2.5000 )
:PCS001: PARTIAL CHARGES SPHERE =  1 S,P,D,F,PX,PY,PZ,D-Z2,D-X2Y2,D-XY,D-XZ,D-YZ 
:QTL001: 1.3300 0.2626 9.7158 0.0126 0.0867 0.0873 0.0886 1.9508 1.9393 1.9495 1.9385 1.9378
        Q-s-low E-s-low   Q-p-low E-p-low   Q-d-low E-d-low   Q-f-low E-f-low
:EPL001:  0.0177 -0.9546    0.0087 -0.9464    9.6409 -0.9011    0.0010 -0.9533
        Q-s-hi  E-s-hi    Q-p-hi  E-p-hi    Q-d-hi  E-d-hi    Q-f-hi  E-f-hi 
:EPH001:  1.3123 -0.2172    0.2539 -0.0910    0.0748 -0.0568    0.0116 -0.0589

                      QXX         QXY         QYY         QZZ       UP TO R
:VZZ001:             0.65332     0.65220     0.15915    -0.81247       2.500

:POS002: ATOM   -2 X,Y,Z = 0.48491 0.94655 0.25000  MULT= 4  ZZ= 55.000  Cs        

       LMMAX 28
       LM=   0 0  1 1 -1 1  2 0  2 2 -2 2  3 1 -3 1  3 3 -3 3  4 0  4 2 -4 2  4 4 -4 4  5 1 -5 1
         5 3 -5 3  5 5 -5 5  6 0  6 2 -6 2  6 4 -6 4  6 6 -6 6

:CHA002: TOTAL VALENCE CHARGE INSIDE SPHERE   2 =  16.3002    (RMT=  2.5000 )
:PCS002: PARTIAL CHARGES SPHERE =  2 S,P,D,F,PX,PY,PZ,D-Z2,D-X2Y2,D-XY,D-XZ,D-YZ 
:QTL002: 1.7961 4.492210.0098 0.0019 1.4966 1.4976 1.4980 2.0015 2.0024 2.0012 2.0020 2.0027
        Q-s-low E-s-low   Q-p-low E-p-low   Q-d-low E-d-low   Q-f-low E-f-low
:EPL002:  1.7867 -1.3719    0.0022 -0.9454    9.9951 -4.8547    0.0000 10.0000
        Q-s-hi  E-s-hi    Q-p-hi  E-p-hi    Q-d-hi  E-d-hi    Q-f-hi  E-f-hi 
:EPH002:  0.0094 -0.0773    4.4900 -0.3971    0.0147 -0.0522    0.0019 -0.0445

                      QXX         QXY         QYY         QZZ       UP TO R
:VZZ002:             0.54735     1.59297    -0.12033    -0.42702       2.500

:POS003: ATOM   -3 X,Y,Z = 0.56000 0.50750 0.25000  MULT= 4  ZZ= 35.000  Br        

       LMMAX 28
       LM=   0 0  1 1 -1 1  2 0  2 2 -2 2  3 1 -3 1  3 3 -3 3  4 0  4 2 -4 2  4 4 -4 4  5 1 -5 1
         5 3 -5 3  5 5 -5 5  6 0  6 2 -6 2  6 4 -6 4  6 6 -6 6

:CHA003: TOTAL VALENCE CHARGE INSIDE SPHERE   3 =  15.9596    (RMT=  2.5000 )
:PCS003: PARTIAL CHARGES SPHERE =  3 S,P,D,F,PX,PY,PZ,D-Z2,D-X2Y2,D-XY,D-XZ,D-YZ 
:QTL003: 1.7971 4.145210.0142 0.0025 1.4001 1.4040 1.3410 2.0110 2.0004 2.0002 2.0017 2.0010
        Q-s-low E-s-low   Q-p-low E-p-low   Q-d-low E-d-low   Q-f-low E-f-low
:EPL003:  1.7663 -0.9480    0.0062 -0.9049   10.0002 -4.3412    0.0006 -0.9090
        Q-s-hi  E-s-hi    Q-p-hi  E-p-hi    Q-d-hi  E-d-hi    Q-f-hi  E-f-hi 
:EPH003:  0.0308 -0.2385    4.1390 -0.0592    0.0140 -0.1103    0.0018 -0.1623

                      QXX         QXY         QYY         QZZ       UP TO R
:VZZ003:            -5.13694    -0.36583    -6.35266    11.48960       2.500

:POS004: ATOM   -4 X,Y,Z = 0.19962 0.70227 0.46752  MULT= 8  ZZ= 35.000  Br        

       LMMAX 49

:CHA004: TOTAL VALENCE CHARGE INSIDE SPHERE   4 =  15.9602    (RMT=  2.5000 )
:PCS004: PARTIAL CHARGES SPHERE =  4 S,P,D,F,PX,PY,PZ,D-Z2,D-X2Y2,D-XY,D-XZ,D-YZ 
:QTL004: 1.7969 4.146610.0138 0.0024 1.3742 1.3712 1.4011 2.0027 2.0019 2.0074 2.0008 2.0010
        Q-s-low E-s-low   Q-p-low E-p-low   Q-d-low E-d-low   Q-f-low E-f-low
:EPL004:  1.7668 -0.9480    0.0060 -0.9038   10.0002 -4.3414    0.0006 -0.9104
        Q-s-hi  E-s-hi    Q-p-hi  E-p-hi    Q-d-hi  E-d-hi    Q-f-hi  E-f-hi 
:EPH004:  0.0301 -0.2388    4.1405 -0.0593    0.0136 -0.1124    0.0018 -0.1564

                      QXX         QXY         QYY         QZZ       UP TO R
:VZZ004:             2.16388    -8.20205     3.11359    -5.27748       2.500

:CHA  : TOTAL VALENCE CHARGE INSIDE UNIT CELL =     336.000000

:SUM  : SUM OF EIGENVALUES =        -801.176942526


        1.ATOM      Pb                   19 CORE STATES
:1S 001: 1S               -6465.856478861 Ry
:2S 001: 2S               -1154.903306790 Ry
:2PP001: 2P*              -1108.893817011 Ry
:2P 001: 2P                -947.935173972 Ry
:3S 001: 3S                -276.693360124 Ry
:3PP001: 3P*               -255.968010997 Ry
:3P 001: 3P                -220.054280836 Ry
:3DD001: 3D*               -186.062537820 Ry
:3D 001: 3D                -178.422247597 Ry
:4S 001: 4S                 -62.128808944 Ry
:4PP001: 4P*                -53.163996678 Ry
:4P 001: 4P                 -44.373404565 Ry
:4DD001: 4D*                -29.792605091 Ry
:4D 001: 4D                 -28.152442018 Ry
:5S 001: 5S                  -9.904885030 Ry
:5PP001: 5P*                 -6.849845520 Ry
:5P 001: 5P                  -5.208607376 Ry
:4FF001: 4F*                 -9.280070916 Ry
:4F 001: 4F                  -8.910355399 Ry

        2.ATOM      Cs                   12 CORE STATES
       CORE-FORCE in mRy/a.u. = |F|      Fx             Fy             Fz
:FCO002:   2.ATOM      8.842542940986     -8.835064566040     -0.363592872713      0.000000000000

:1S 002: 1S               -2628.589836052 Ry
:2S 002: 2S                -411.663315835 Ry
:2PP002: 2P*               -387.226059542 Ry
:2P 002: 2P                -361.334303543 Ry
:3S 002: 3S                 -85.113558932 Ry
:3PP002: 3P*                -74.910137637 Ry
:3P 002: 3P                 -69.948285401 Ry
:3DD002: 3D*                -52.028973622 Ry
:3D 002: 3D                 -50.975649671 Ry
:4S 002: 4S                 -15.579493186 Ry
:4PP002: 4P*                -11.918652724 Ry
:4P 002: 4P                 -10.906723180 Ry

        3.ATOM      Br                    7 CORE STATES
       CORE-FORCE in mRy/a.u. = |F|      Fx             Fy             Fz
:FCO003:   3.ATOM    113.798211866841     46.855090037281    103.704549377974      0.000000000000

:1S 003: 1S                -977.960077086 Ry
:2S 003: 2S                -126.757186875 Ry
:2PP003: 2P*               -114.087264181 Ry
:2P 003: 2P                -110.595877631 Ry
:3S 003: 3S                 -16.930995736 Ry
:3PP003: 3P*                -12.526450390 Ry
:3P 003: 3P                 -12.024239283 Ry

        4.ATOM      Br                    7 CORE STATES
       CORE-FORCE in mRy/a.u. = |F|      Fx             Fy             Fz
:FCO004:   4.ATOM     88.726814992281    -27.631481055139    -54.539348517191    -64.299365601025

:1S 004: 1S                -977.960247445 Ry
:2S 004: 2S                -126.757357083 Ry
:2PP004: 2P*               -114.087434426 Ry
:2P 004: 2P                -110.596047870 Ry
:3S 004: 3S                 -16.931164448 Ry
:3PP004: 3P*                -12.526618974 Ry
:3P 004: 3P                 -12.024407776 Ry
:CINT001 Core Integral Atom   1   67.995039
:CINT002 Core Integral Atom   2   35.999909
:CINT003 Core Integral Atom   3   17.999989
:CINT004 Core Integral Atom   4   17.999989

       DENSITY AT NUCLEUS
        JATOM        VALENCE       SEMI-CORE          CORE           TOTAL
:RTO001:   1     1927.743311        0.000000  9911349.920423  9913277.663734
:RTO002:   2      320.899467        0.000000   438170.878700   438491.778167
:RTO003:   3       73.648217        0.000000    45839.135817    45912.784034
:RTO004:   4       73.632122        0.000000    45839.135906    45912.768028
     
       CHARGES OF NEW CHARGE DENSITY
:NTO   : INTERSTITIAL CHARGE =    33.985209
:NPC   : PW Pseudocharge     =   114.705707
:NTO001: CHARGE SPHERE  1    =    79.318481
:NTO002: CHARGE SPHERE  2    =    52.300119
:NTO003: CHARGE SPHERE  3    =    33.959563
:NTO004: CHARGE SPHERE  4    =    33.960220

:NEC01: NUCLEAR AND ELECTRONIC CHARGE    968.00000   967.97962
     
       CHARGES OF OLD CHARGE DENSITY
:OTO   : INTERSTITIAL CHARGE =    36.623571
:OPC   : PW Pseudocharge     =   131.417958
:OTO001: CHARGE SPHERE  1    =    79.809567
:OTO002: CHARGE SPHERE  2    =    52.317982
:OTO003: CHARGE SPHERE  3    =    33.573161
:OTO004: CHARGE SPHERE  4    =    33.572536

:NEC02: NUCLEAR AND ELECTRONIC CHARGE    968.00000   968.00670
     
       CONVERGENCE TEST
:DTO001: DIFFERENCE IN SPHERE  1 =  0.2573786
:DTO002: DIFFERENCE IN SPHERE  2 =  0.0743078
:DTO003: DIFFERENCE IN SPHERE  3 =  0.1921134
:DTO004: DIFFERENCE IN SPHERE  4 =  0.1927748

:DIS  :  CHARGE DISTANCE       ( 0.2573786 for atom    1 spin 1)      0.1818699
 PW Mixed is         3296
 
******************************************************
* MULTISECANT MIXING VER9 RELEASE 10.4.0              *
* Standard Mode with controls                        *
* Fixed density scale                                *
* Regularization       1.000E-04                     *
* Trust Upper Limit    5.000E+00                     *
* Max Number of Memory Steps    8                    *
******************************************************
 
:PWTMP   3.9481E+03  2.5000E+03  5.2571E+03
:PLANE:  PW TOTAL     10.8679 DISTAN   2.79E+00  2.57E+01 %
:CHARG:  CLM/ATOM   1115.9684 DISTAN   2.16E-01  1.94E-02 %
 
Step History
        DMIX         DMIXT        Red     Pred      Trust     Lambda    MagRel    MagAbs     Beta
  1   3.5000E-02   3.5000E-02 -1.00E+00  1.00E+00 -1.00E+01  1.00E+00  3.50E-02  3.50E-02  1.00E+00
:INFO :  Note, Pratt in use
:TRUST:  Step 3.75E-02  Charge 7.50E-02 (e) CTO  4.43E-01 (e) PW  6.21E-01 (e)
:DIRM :  MEMORY  0/ 8 SCALE   1.000
Performing Pseudo Compensation
Final Pseudo Compensation Rescaling     1.00006E+00
:MIX  :   PRATT  REGULARIZATION:  1.00E-04 GREED: 0.02500                  
     
       CHARGES OF MIXED CHARGE DENSITY
:CTO   : INTERSTITIAL CHARGE =    36.551584
:CPC   : PW Pseudocharge     =   120.497497
:CTO001: CHARGE SPHERE  1    =    79.797290
:CTO002: CHARGE SPHERE  2    =    52.317535
:CTO003: CHARGE SPHERE  3    =    33.582821
:CTO004: CHARGE SPHERE  4    =    33.582229

:NEC03: NUCLEAR AND ELECTRONIC CHARGE    968.00000   968.00000

PW CHANGE     H    K    L      Current       Change    Residue
:PTO001:      0    0    0  2.98738632E-02 -2.085E-03 -3.658E-03
:PTO006:     -1    0   -1 -2.66247463E-03  1.237E-04  1.637E-04
:PTO007:      0    0   -2  3.37138365E-03 -2.089E-03 -3.417E-03
:PTO008:     -1   -1    0  6.44468532E-03 -4.262E-03 -6.913E-03
:PTO009:     -1   -1   -1 -1.17513621E-02  7.918E-04  1.073E-03
:PTO012:      0   -2    0  8.31592870E-03 -2.735E-03 -4.165E-03
:PTO013:     -1   -1   -2  2.65154069E-02 -1.084E-02 -1.695E-02
:PTO014:     -2    0    0  8.27878460E-03 -2.776E-03 -4.217E-03
:PTO015:      0   -2   -1  6.60024305E-03 -6.258E-04 -1.052E-03
:PTO018:     -1   -2    0 -1.18869100E-02  3.631E-04  2.184E-04
:PTO019:     -2   -1    0  1.30932793E-02 -4.141E-04 -2.676E-04
:PTO021:     -1   -2   -1  1.37023927E-02 -4.163E-04 -2.752E-04

:ENE  : ********** TOTAL ENERGY IN Ry =      -292313.33403789

       TOTAL FORCE IN mRy/a.u. = |F|     Fx             Fy             Fz     with/without FOR in case.in2
:FOR001:   1.ATOM          0.000          0.000          0.000          0.000 partial forces
:FOR002:   2.ATOM          4.372          4.372          0.011          0.000 partial forces
:FOR003:   3.ATOM        106.333        -46.191        -95.776          0.000 partial forces
:FOR004:   4.ATOM         85.482         27.949         52.487         61.409 partial forces
       TOTAL FORCE WITH RESPECT TO GLOBAL CARTESIAN COORDINATES:
:FCA001:   1.ATOM                         0.000          0.000          0.000 partial forces
:FCA002:   2.ATOM                         4.372          0.011          0.000 partial forces
:FCA003:   3.ATOM                       -46.191        -95.776          0.000 partial forces
:FCA004:   4.ATOM                        27.949         52.487         61.409 partial forces
       TOTAL FORCE WITH RESPECT TO THE GLOBAL COORDINATE SYSTEM:
:FGL001:   1.ATOM                 0.000000000     0.000000000     0.000000000 partial forces
:FGL002:   2.ATOM                 4.372299202     0.010531475     0.000000000 partial forces
:FGL003:   3.ATOM               -46.190547310   -95.776443374     0.000000000 partial forces
:FGL004:   4.ATOM                27.949474855    52.487409272    61.409085276 partial forces
 Flat Integration
 New Mode for Coulomb Integral
 Consistent 3/8+Simpson combinations
 Extension of core to zero
 LDM version in phi
 Fifth-order quadrature in outwin


            ---------
:ITE002:  2. ITERATION
            ---------

:NATO :    4 INDEPENDENT AND   20 TOTAL ATOMS IN UNITCELL
       SUBSTANCE: blebleble                                                   

       LATTICE                      = P   
:POT  : POTENTIAL OPTION EX_PBE EC_PBE VX_PBE VC_PBE
:LAT  : LATTICE CONSTANTS= 15.19415 15.66734 22.08372    1.571    1.571    1.571
:VOL  : UNIT CELL VOLUME =    5257.07306
       MODE OF CALCULATION IS       = RELA
       NON-SPINPOLARIZED CALCULATION
:IFFT  : FFT-parameters:  120  120  180 Factor: 2.00


   CONVERGENCE PARAMETER FOR PSEUDOCHARGE: NCON=  9
   MAXIMAL VALUE OF RMT(JATOM)*ABSK(NKK) : RK  =29.99804


:VKCOUL :  VK-COUL convergence: 0.242E-08
       ATOMNUMBER=  1 Pb         VCOUL-ZERO =  0.10006E+00
:EFG001:                        EFG         =     0.02829   *10**21  V / m**2
                               V20  TOT/SRF=    -0.01642     0.00190
                               V22  TOT/SRF=     0.00591    -0.00072
                               V22M TOT/SRF=     0.01602    -0.00085
                               V21  TOT/SRF=    -0.00665     0.00318
                               V21M TOT/SRF=    -0.00628    -0.00511

              0.01539    0.01602   -0.00665        0.02829    0.00000    0.00000
              0.01602    0.00357   -0.00628        0.00000   -0.00746    0.00000
             -0.00665   -0.00628   -0.01896        0.00000    0.00000   -0.02082

         MAIN DIRECTIONS OF THE EFG   1.0000 -0.7359  0.0982
                                      0.7077  1.0000  0.1928
                                     -0.2347 -0.1205  1.0000
:ANG001:  ANGLE WITH OLD X-AXIS =        36.6

:ETA001:                         ASYMM. ETA =     0.47236


       ATOMNUMBER=  2 Cs         VCOUL-ZERO = -0.53255E-01
:EFG002:                        EFG         =     0.04602   *10**21  V / m**2
                               V20  TOT/SRF=    -0.00971    -0.00043
                               V22  TOT/SRF=     0.00808    -0.00052
                               V22M TOT/SRF=     0.03959    -0.00110
                               V21  TOT/SRF=     0.00000     0.00000
                               V21M TOT/SRF=     0.00000     0.00000

              0.01369    0.03959    0.00000        0.04602    0.00000    0.00000
              0.03959   -0.00248    0.00000        0.00000   -0.03480    0.00000
              0.00000    0.00000   -0.01122        0.00000    0.00000   -0.01122

         MAIN DIRECTIONS OF THE EFG   1.0000 -0.8164  0.0000
                                      0.8164  1.0000  0.0000
                                      0.0000  0.0000  1.0000
:ANG002:  ANGLE WITH OLD X-AXIS =        39.2

:ETA002:                         ASYMM. ETA =     0.51256


       ATOMNUMBER=  3 Br         VCOUL-ZERO =  0.27844E+00
:EFG003:                        EFG         =     0.31468   *10**21  V / m**2
                               V20  TOT/SRF=     0.27252     0.06296
                               V22  TOT/SRF=     0.01942     0.00570
                               V22M TOT/SRF=    -0.01952    -0.01138
                               V21  TOT/SRF=     0.00000     0.00000
                               V21M TOT/SRF=     0.00000     0.00000

             -0.13792   -0.01952    0.00000       -0.12980    0.00000    0.00000
             -0.01952   -0.17677    0.00000        0.00000   -0.18488    0.00000
              0.00000    0.00000    0.31468        0.00000    0.00000    0.31468

         MAIN DIRECTIONS OF THE EFG   1.0000  0.4157  0.0000
                                     -0.4157  1.0000  0.0000
                                      0.0000  0.0000  1.0000
:ANG003:  ANGLE WITH OLD X-AXIS =        22.6

:ETA003:                         ASYMM. ETA =     0.17503


       ATOMNUMBER=  4 Br         VCOUL-ZERO =  0.27848E+00
:EFG004:                        EFG         =     0.29752   *10**21  V / m**2
                               V20  TOT/SRF=    -0.12270    -0.02718
                               V22  TOT/SRF=    -0.01518    -0.00448
                               V22M TOT/SRF=    -0.22500    -0.05180
                               V21  TOT/SRF=    -0.02582    -0.00410
                               V21M TOT/SRF=     0.00680     0.00786

              0.05566   -0.22500   -0.02582        0.29752    0.00000    0.00000
             -0.22500    0.08603    0.00680        0.00000   -0.16415    0.00000
             -0.02582    0.00680   -0.14169        0.00000    0.00000   -0.13338

         MAIN DIRECTIONS OF THE EFG  -0.9378  1.0000 -0.4520
                                      1.0000  0.8754 -0.4945
                                      0.0706  0.8848  1.0000
:ANG004:  ANGLE WITH OLD X-AXIS =       130.5

:ETA004:                         ASYMM. ETA =     0.10342


     HELLMANN-FEYNMAN-FORCE IN mRy/a.u. = |F|  Fx       Fy             Fz
:FHF001:   1.ATOM      0.000000000000      0.000000000000      0.000000000000      0.000000000000

     HELLMANN-FEYNMAN-FORCE IN mRy/a.u. = |F|  Fx       Fy             Fz
:FHF002:   2.ATOM     12.450078210318     12.382328305689      1.297070997738      0.000000000000

     HELLMANN-FEYNMAN-FORCE IN mRy/a.u. = |F|  Fx       Fy             Fz
:FHF003:   3.ATOM    205.560810649881    -81.006999257197   -188.926210321333      0.000000000000

     HELLMANN-FEYNMAN-FORCE IN mRy/a.u. = |F|  Fx       Fy             Fz
:FHF004:   4.ATOM    153.468021072303     45.146385199192     94.335346483357    112.316872281772

:FIT001: LUSE= 13 SIGMA OF V-XC FIT FOR ATOM  1  0.7676860E-03
:FIT001: LUSE= 13 SIGMA OF V-XC FIT FOR ATOM  1  0.7676860E-03
:FIT002: LUSE= 13 SIGMA OF V-XC FIT FOR ATOM  2  0.1702340E-04
:FIT002: LUSE= 13 SIGMA OF V-XC FIT FOR ATOM  2  0.1702340E-04
:FIT003: LUSE= 13 SIGMA OF V-XC FIT FOR ATOM  3  0.7172613E-03
:FIT003: LUSE= 13 SIGMA OF V-XC FIT FOR ATOM  3  0.7172613E-03
:FIT004: LUSE= 13 SIGMA OF V-XC FIT FOR ATOM  4  0.6376148E-03
:FIT004: LUSE= 13 SIGMA OF V-XC FIT FOR ATOM  4  0.6376148E-03
:DEN  : DENSITY INTEGRAL  =       -114057.14093014   (Ry)
       ELS_POTENTIAL_AT Z=0 and Z=0.5:  -0.55049  -0.55049
       ELS_POTENTIAL_AT Y=0 and Y=0.5:  -0.46074  -0.46074
:VZERO:v0,v0c,v0x  -1.27718  -0.55049  -0.72669 v5,v5c,v5x  -1.27718  -0.55049  -0.72669
:VZERY:v0,v0c,v0x  -1.10441  -0.46074  -0.64367 v5,v5c,v5x  -1.10441  -0.46074  -0.64367
:VZERX:v0,v0c,v0x  -1.09735  -0.46052  -0.63684 v5,v5c,v5x  -1.09735  -0.46052  -0.63684
:LMAX-WF:   10   Non-Spherical LMAX:   4

          ATOMIC SPHERE DEPENDENT PARAMETERS FOR ATOM  Pb        
:e__0001: OVERALL ENERGY PARAMETER IS    0.1000
          OVERALL BASIS SET ON ATOM IS LAPW
:E2_0001: E( 2)=    0.5000
             APW+lo
:E2_0001: E( 2)=   -0.9488   E(BOTTOM)=   -1.186   E(TOP)=   -0.711  2  3   125
             LOCAL ORBITAL
:E0_0001: E( 0)=    0.1000
             APW+lo
:E1_0001: E( 1)=    0.1000
             APW+lo

          ATOMIC SPHERE DEPENDENT PARAMETERS FOR ATOM  Cs        
:e__0002: OVERALL ENERGY PARAMETER IS    0.1000
          OVERALL BASIS SET ON ATOM IS LAPW
:E2_0002: E( 2)=    0.1000
             APW+lo
:E2_0002: E( 2)=   -4.8614   E(BOTTOM)=   -4.873   E(TOP)=   -4.850  1  2   117
             LOCAL ORBITAL
:E0_0002: E( 0)=    0.5000
             APW+lo
:E0_0002: E( 0)=   -1.3700   E(BOTTOM)=   -2.053   E(TOP)=   -0.687  4  5   169
             LOCAL ORBITAL
:E1_0002: E( 1)=    0.5000
             APW+lo
:E1_0002: E( 1)=   -0.1972   E(BOTTOM)=   -1.169   E(TOP)=    0.775  3  4   198
             LOCAL ORBITAL

          ATOMIC SPHERE DEPENDENT PARAMETERS FOR ATOM  Br        
:e__0003: OVERALL ENERGY PARAMETER IS    0.1000
          OVERALL BASIS SET ON ATOM IS LAPW
:E2_0003: E( 2)=    0.1000
             APW+lo
:E2_0003: E( 2)=   -4.3402   E(BOTTOM)=   -4.343   E(TOP)=   -4.337  1  1   124
             LOCAL ORBITAL
:E0_0003: E( 0)=    0.5000
             APW+lo
:E0_0003: E( 0)=   -0.9468   E(BOTTOM)=   -1.512   E(TOP)=   -0.381  3  4   153
             LOCAL ORBITAL
:E1_0003: E( 1)=    0.1000
             APW+lo

          ATOMIC SPHERE DEPENDENT PARAMETERS FOR ATOM  Br        
:e__0004: OVERALL ENERGY PARAMETER IS    0.1000
          OVERALL BASIS SET ON ATOM IS LAPW
:E2_0004: E( 2)=    0.1000
             APW+lo
:E2_0004: E( 2)=   -4.3402   E(BOTTOM)=   -4.343   E(TOP)=   -4.337  1  1   120
             LOCAL ORBITAL
:E0_0004: E( 0)=    0.5000
             APW+lo
:E0_0004: E( 0)=   -0.9469   E(BOTTOM)=   -1.513   E(TOP)=   -0.381  3  4   156
             LOCAL ORBITAL
:E1_0004: E( 1)=    0.1000
             APW+lo

       K=   0.04545   0.04545   0.07143            1
:RKM  : MATRIX SIZE  3202LOs: 308  RKM= 8.00  WEIGHT= 8.00  PGR:    
       EIGENVALUES ARE:
:EIG00001:      -4.8589891   -4.8589812   -4.8589788   -4.8589751   -4.8589720
:EIG00006:      -4.8589700   -4.8589689   -4.8589668   -4.8589649   -4.8589620
:EIG00011:      -4.8589599   -4.8589553   -4.8589526   -4.8589469   -4.8589441
:EIG00016:      -4.8589392   -4.8589365   -4.8589339   -4.8589333   -4.8589243
:EIG00021:      -4.3401354   -4.3401345   -4.3401335   -4.3401314   -4.3401266
:EIG00026:      -4.3401260   -4.3401256   -4.3401249   -4.3401245   -4.3401233
:EIG00031:      -4.3401225   -4.3401223   -4.3398496   -4.3398494   -4.3398491
:EIG00036:      -4.3398478   -4.3398104   -4.3398090   -4.3398083   -4.3398071
:EIG00041:      -4.3398061   -4.3398052   -4.3398048   -4.3398044   -4.3397443
:EIG00046:      -4.3397420   -4.3397413   -4.3397392   -4.3397375   -4.3397363
 
:EIG00051:      -4.3397356   -4.3397352   -4.3395636   -4.3395633   -4.3395630
:EIG00056:      -4.3395620   -4.3391805   -4.3391794   -4.3391792   -4.3391779
:EIG00061:      -4.3391775   -4.3391766   -4.3391762   -4.3391728   -4.3391337
:EIG00066:      -4.3391332   -4.3391311   -4.3391303   -4.3391287   -4.3391271
:EIG00071:      -4.3391271   -4.3391258   -4.3390986   -4.3390975   -4.3390974
:EIG00076:      -4.3390955   -4.3390316   -4.3390287   -4.3390251   -4.3390242
:EIG00081:      -1.3762018   -1.3760409   -1.3758607   -1.3757557   -0.9728896
:EIG00086:      -0.9724916   -0.9723967   -0.9712421   -0.9697523   -0.9665458
:EIG00091:      -0.9486664   -0.9484295   -0.9483047   -0.9479615   -0.9474837
:EIG00096:      -0.9470382   -0.9180808   -0.9177081   -0.9172767   -0.9119051
 
:EIG00101:      -0.9118807   -0.9117787   -0.9116464   -0.9115195   -0.9114953
:EIG00106:      -0.9114730   -0.9114098   -0.9110740   -0.9110259   -0.9108633
:EIG00111:      -0.9107382   -0.9057346   -0.8926243   -0.8801997   -0.8800159
:EIG00116:      -0.8797566   -0.4183896   -0.4163056   -0.4160406   -0.4154201
:EIG00121:      -0.4138346   -0.4134389   -0.4131814   -0.4117028   -0.4116562
:EIG00126:      -0.4114235   -0.4109829   -0.4101777   -0.4092832   -0.3734306
:EIG00131:      -0.3332056   -0.2726962   -0.1509412   -0.1501441   -0.1471898
:EIG00136:      -0.1429804   -0.1411339   -0.1323857   -0.0996632   -0.0820257
:EIG00141:      -0.0790246   -0.0775757   -0.0762177   -0.0690192   -0.0601729
:EIG00146:      -0.0544484   -0.0521529   -0.0495967   -0.0469572   -0.0445328
 
:EIG00151:      -0.0432682   -0.0412168   -0.0407255   -0.0395081   -0.0329178
:EIG00156:      -0.0286747   -0.0283135   -0.0279217   -0.0256218   -0.0241409
:EIG00161:      -0.0229387   -0.0204192   -0.0189087   -0.0185866   -0.0011366
:EIG00166:       0.0527433    0.1009398    0.1540953    0.3335260    0.3371818
:EIG00171:       0.3411429    0.3658713    0.3790802    0.3968515    0.4014205
:EIG00176:       0.4806259    0.4863508    0.4934131    0.4984710    0.5261578
:EIG00181:       0.5286342    0.5332458    0.5407139    0.5450099    0.5456614
:EIG00186:       0.5491376    0.5545537    0.5558967    0.5700848    0.5742584
:EIG00191:       0.5753563    0.5825103    0.5956206    0.5991458    0.6030694
:EIG00196:       0.6090861    0.6103629    0.6154833    0.6179076    0.6275919
 
:EIG00201:       0.6331367    0.6374748    0.6459685    0.6541946    0.6563240
:EIG00206:       0.6730044    0.6793975    0.6882770    0.6952457    0.7000156
:EIG00211:       0.7131622    0.7295621    0.7397519    0.7472536    0.7545941
:EIG00216:       0.7572802    0.7597569    0.7650280    0.7745492    0.7842842
:EIG00221:       0.7853928    0.7896632    0.7926201    0.8303487    0.8489926
:EIG00226:       0.8542922    0.8570192    0.8618353    0.8630480    0.8659869
:EIG00231:       0.8698923    0.8793988    0.8935214    0.8956441    0.9062109
:EIG00236:       0.9224533    0.9341692    0.9412862    0.9492467    0.9538425
:EIG00241:       0.9559684    0.9651610    0.9761740    0.9817370    0.9930567
:EIG00246:       0.9950555    1.0054520    1.0094269    1.0103415    1.0132846
 
:EIG00251:       1.0220463    1.0242940    1.0371718    1.0541910    1.0610320
:EIG00256:       1.0680624    1.0719340    1.0800439    1.0816218    1.0846957
:EIG00261:       1.0875852    1.0919767    1.0939396    1.0979604    1.1028225
:EIG00266:       1.1069688    1.1126061    1.1184160    1.1203288    1.1259603
:EIG00271:       1.1295833    1.1344107    1.1395893    1.1426223    1.1507527
:EIG00276:       1.1554451    1.1590567    1.1627468    1.1642118    1.1683125
:EIG00281:       1.1726165    1.1750197    1.1786020    1.1802078    1.1855422
:EIG00286:       1.1888611    1.1946710    1.1982047    1.2031152    1.2095484
:EIG00291:       1.2151585    1.2182274    1.2211397    1.2266506    1.2301943
:EIG00296:       1.2318033    1.2392917    1.2433495    1.2441127    1.2553156
 
:EIG00301:       1.2625501    1.2661215    1.2720277    1.2759243    1.2790717
:EIG00306:       1.2845217    1.2958910    1.3036284    1.3046301    1.3081108
:EIG00311:       1.3103856    1.3168805    1.3260885    1.3347855    1.3432916
:EIG00316:       1.3512273    1.3538217    1.3598377    1.3659116    1.3714743
:EIG00321:       1.3762906    1.3822314    1.3880348    1.3918597    1.3938234
:EIG00326:       1.4018428    1.4040880    1.4153143    1.4177752    1.4215103
:EIG00331:       1.4306051    1.4362188    1.4397825    1.4446928    1.4549435
:EIG00336:       1.4573630    1.4581067    1.4596625    1.4633320    1.4694274
:EIG00341:       1.4728309    1.4760318    1.4783360    1.4858713    1.4884080
:EIG00346:       1.4940225    1.5014732    1.5073755    1.5109043    1.5156701
 
:EIG00351:       1.5172513    1.5190438    1.5266682    1.5311793    1.5462854
:EIG00356:       1.5511295    1.5587243    1.5642263    1.5735099    1.5782172
:EIG00361:       1.5836281    1.5842529    1.5988913    1.6018349    1.6133671
:EIG00366:       1.6169432    1.6212821    1.6274437    1.6323341    1.6439724
:EIG00371:       1.6481137    1.6519456    1.6543011    1.6620804    1.6671722
:EIG00376:       1.6675346    1.6694062    1.6806902    1.6847757    1.6970615
:EIG00381:       1.7000983    1.7073901    1.7100845    1.7146097    1.7204271
:EIG00386:       1.7228085    1.7263287    1.7335487    1.7383887    1.7408393
:EIG00391:       1.7425052    1.7492084    1.7520982    1.7532998    1.7633386
:EIG00396:       1.7643258    1.7749708    1.7775788    1.7847556    1.7900254
 
:EIG00401:       1.7980303    1.7996003
       ********************************************************

:KPT   :      NUMBER OF K-POINTS:   144
       Insulator, EF-inconsistency corrected
:GAP (global)   :  0.179431 Ry =     2.441 eV (accurate value if proper k-mesh)
         Bandranges (emin - emax) and occupancy:
:BAN00158: 158   -0.037087   -0.025757  2.00000000
:BAN00159: 159   -0.034190   -0.025462  2.00000000
:BAN00160: 160   -0.034190   -0.024141  2.00000000
:BAN00161: 161   -0.030137   -0.022101  2.00000000
:BAN00162: 162   -0.029181   -0.019990  2.00000000
:BAN00163: 163   -0.024030   -0.014395  2.00000000
:BAN00164: 164   -0.024030   -0.014395  2.00000000
:BAN00165: 165   -0.001137    0.063577  2.00000000
:BAN00166: 166    0.008566    0.065343  2.00000000
:BAN00167: 167    0.037114    0.116357  2.00000000
:BAN00168: 168    0.037114    0.154095  2.00000000
:BAN00169: 169    0.333526    0.436585  0.00000000
:BAN00170: 170    0.337182    0.436585  0.00000000
:BAN00171: 171    0.341143    0.442703  0.00000000
:BAN00172: 172    0.358922    0.442703  0.00000000
:BAN00173: 173    0.375308    0.460189  0.00000000
        Energy to separate low and high energystates:   -0.46839


:NOE  : NUMBER OF ELECTRONS          =  336.000

:FER  : F E R M I - ENERGY(TETRAH.M.)=   0.1540953332
:GMA  : POTENTIAL AND CHARGE CUT-OFF  12.00 Ry**.5

:POS001: ATOM   -1 X,Y,Z = 0.50000 0.50000 0.50000  MULT= 4  ZZ= 82.000  Pb        

       LMMAX 28
       LM=   0 0  2 0  2 1 -2 1  2 2 -2 2  4 0  4 1 -4 1  4 2 -4 2  4 3 -4 3  4 4 -4 4  6 0  6 1
        -6 1  6 2 -6 2  6 3 -6 3  6 4 -6 4  6 5 -6 5  6 6 -6 6

:CHA001: TOTAL VALENCE CHARGE INSIDE SPHERE   1 =  11.3336    (RMT=  2.5000 )
:PCS001: PARTIAL CHARGES SPHERE =  1 S,P,D,F,PX,PY,PZ,D-Z2,D-X2Y2,D-XY,D-XZ,D-YZ 
:QTL001: 1.3320 0.2690 9.7175 0.0127 0.0888 0.0895 0.0907 1.9511 1.9396 1.9498 1.9388 1.9381
        Q-s-low E-s-low   Q-p-low E-p-low   Q-d-low E-d-low   Q-f-low E-f-low
:EPL001:  0.0183 -0.9548    0.0089 -0.9463    9.6432 -0.9131    0.0011 -0.9531
        Q-s-hi  E-s-hi    Q-p-hi  E-p-hi    Q-d-hi  E-d-hi    Q-f-hi  E-f-hi 
:EPH001:  1.3137 -0.2267    0.2601 -0.0933    0.0743 -0.0580    0.0117 -0.0599

                      QXX         QXY         QYY         QZZ       UP TO R
:VZZ001:             0.65259     0.66501     0.14350    -0.79609       2.500

:POS002: ATOM   -2 X,Y,Z = 0.48491 0.94655 0.25000  MULT= 4  ZZ= 55.000  Cs        

       LMMAX 28
       LM=   0 0  1 1 -1 1  2 0  2 2 -2 2  3 1 -3 1  3 3 -3 3  4 0  4 2 -4 2  4 4 -4 4  5 1 -5 1
         5 3 -5 3  5 5 -5 5  6 0  6 2 -6 2  6 4 -6 4  6 6 -6 6

:CHA002: TOTAL VALENCE CHARGE INSIDE SPHERE   2 =  16.3020    (RMT=  2.5000 )
:PCS002: PARTIAL CHARGES SPHERE =  2 S,P,D,F,PX,PY,PZ,D-Z2,D-X2Y2,D-XY,D-XZ,D-YZ 
:QTL002: 1.7963 4.493610.0100 0.0019 1.4971 1.4980 1.4985 2.0016 2.0024 2.0012 2.0021 2.0028
        Q-s-low E-s-low   Q-p-low E-p-low   Q-d-low E-d-low   Q-f-low E-f-low
:EPL002:  1.7868 -1.3756    0.0022 -0.9456    9.9951 -4.8589    0.0000 10.0000
        Q-s-hi  E-s-hi    Q-p-hi  E-p-hi    Q-d-hi  E-d-hi    Q-f-hi  E-f-hi 
:EPH002:  0.0095 -0.0778    4.4914 -0.4006    0.0149 -0.0527    0.0019 -0.0449

                      QXX         QXY         QYY         QZZ       UP TO R
:VZZ002:             0.55681     1.61935    -0.11650    -0.44031       2.500

:POS003: ATOM   -3 X,Y,Z = 0.56000 0.50750 0.25000  MULT= 4  ZZ= 35.000  Br        

       LMMAX 28
       LM=   0 0  1 1 -1 1  2 0  2 2 -2 2  3 1 -3 1  3 3 -3 3  4 0  4 2 -4 2  4 4 -4 4  5 1 -5 1
         5 3 -5 3  5 5 -5 5  6 0  6 2 -6 2  6 4 -6 4  6 6 -6 6

:CHA003: TOTAL VALENCE CHARGE INSIDE SPHERE   3 =  15.9481    (RMT=  2.5000 )
:PCS003: PARTIAL CHARGES SPHERE =  3 S,P,D,F,PX,PY,PZ,D-Z2,D-X2Y2,D-XY,D-XZ,D-YZ 
:QTL003: 1.7965 4.134310.0142 0.0025 1.3974 1.4014 1.3356 2.0109 2.0004 2.0002 2.0017 2.0010
        Q-s-low E-s-low   Q-p-low E-p-low   Q-d-low E-d-low   Q-f-low E-f-low
:EPL003:  1.7652 -0.9479    0.0060 -0.9160   10.0002 -4.3390    0.0006 -0.9206
        Q-s-hi  E-s-hi    Q-p-hi  E-p-hi    Q-d-hi  E-d-hi    Q-f-hi  E-f-hi 
:EPH003:  0.0313 -0.2460    4.1283 -0.0601    0.0140 -0.1157    0.0018 -0.1687

                      QXX         QXY         QYY         QZZ       UP TO R
:VZZ003:            -5.38190    -0.35323    -6.61849    12.00038       2.500

:POS004: ATOM   -4 X,Y,Z = 0.19962 0.70227 0.46752  MULT= 8  ZZ= 35.000  Br        

       LMMAX 49

:CHA004: TOTAL VALENCE CHARGE INSIDE SPHERE   4 =  15.9487    (RMT=  2.5000 )
:PCS004: PARTIAL CHARGES SPHERE =  4 S,P,D,F,PX,PY,PZ,D-Z2,D-X2Y2,D-XY,D-XZ,D-YZ 
:QTL004: 1.7963 4.135710.0137 0.0024 1.3702 1.3670 1.3984 2.0027 2.0019 2.0073 2.0008 2.0010
        Q-s-low E-s-low   Q-p-low E-p-low   Q-d-low E-d-low   Q-f-low E-f-low
:EPL004:  1.7656 -0.9478    0.0058 -0.9151   10.0001 -4.3391    0.0006 -0.9219
        Q-s-hi  E-s-hi    Q-p-hi  E-p-hi    Q-d-hi  E-d-hi    Q-f-hi  E-f-hi 
:EPH004:  0.0306 -0.2464    4.1298 -0.0600    0.0136 -0.1180    0.0018 -0.1627

                      QXX         QXY         QYY         QZZ       UP TO R
:VZZ004:             2.27810    -8.56837     3.25400    -5.53210       2.500

:CHA  : TOTAL VALENCE CHARGE INSIDE UNIT CELL =     336.000000

:SUM  : SUM OF EIGENVALUES =        -801.799276848


        1.ATOM      Pb                   19 CORE STATES
:1S 001: 1S               -6465.872327565 Ry
:2S 001: 2S               -1154.918669019 Ry
:2PP001: 2P*              -1108.909283756 Ry
:2P 001: 2P                -947.950563193 Ry
:3S 001: 3S                -276.708116203 Ry
:3PP001: 3P*               -255.982811772 Ry
:3P 001: 3P                -220.069013353 Ry
:3DD001: 3D*               -186.077362419 Ry
:3D 001: 3D                -178.437048909 Ry
:4S 001: 4S                 -62.142918950 Ry
:4PP001: 4P*                -53.178106263 Ry
:4P 001: 4P                 -44.387428249 Ry
:4DD001: 4D*                -29.806616837 Ry
:4D 001: 4D                 -28.166425773 Ry
:5S 001: 5S                  -9.917895255 Ry
:5PP001: 5P*                 -6.862729081 Ry
:5P 001: 5P                  -5.221287045 Ry
:4FF001: 4F*                 -9.294004606 Ry
:4F 001: 4F                  -8.924273492 Ry

        2.ATOM      Cs                   12 CORE STATES
       CORE-FORCE in mRy/a.u. = |F|      Fx             Fy             Fz
:FCO002:   2.ATOM      8.356273355443     -8.302183633600     -0.949237222652      0.000000000000

:1S 002: 1S               -2628.595390063 Ry
:2S 002: 2S                -411.668488270 Ry
:2PP002: 2P*               -387.231306737 Ry
:2P 002: 2P                -361.339525881 Ry
:3S 002: 3S                 -85.118225471 Ry
:3PP002: 3P*                -74.914826375 Ry
:3P 002: 3P                 -69.952953026 Ry
:3DD002: 3D*                -52.033694228 Ry
:3D 002: 3D                 -50.980362474 Ry
:4S 002: 4S                 -15.583745758 Ry
:4PP002: 4P*                -11.922890703 Ry
:4P 002: 4P                 -10.910943373 Ry

        3.ATOM      Br                    7 CORE STATES
       CORE-FORCE in mRy/a.u. = |F|      Fx             Fy             Fz
:FCO003:   3.ATOM    106.186349390009     40.412899492003     98.195409013998      0.000000000000

:1S 003: 1S                -977.957168851 Ry
:2S 003: 2S                -126.754538669 Ry
:2PP003: 2P*               -114.084581506 Ry
:2P 003: 2P                -110.593200191 Ry
:3S 003: 3S                 -16.928697962 Ry
:3PP003: 3P*                -12.524159411 Ry
:3P 003: 3P                 -12.021959893 Ry

        4.ATOM      Br                    7 CORE STATES
       CORE-FORCE in mRy/a.u. = |F|      Fx             Fy             Fz
:FCO004:   4.ATOM     77.710061581126    -22.054730127246    -47.769106669942    -57.188766361170

:1S 004: 1S                -977.957228930 Ry
:2S 004: 2S                -126.754600196 Ry
:2PP004: 2P*               -114.084642816 Ry
:2P 004: 2P                -110.593261533 Ry
:3S 004: 3S                 -16.928760222 Ry
:3PP004: 3P*                -12.524221565 Ry
:3P 004: 3P                 -12.022022014 Ry
:CINT001 Core Integral Atom   1   67.995052
:CINT002 Core Integral Atom   2   35.999909
:CINT003 Core Integral Atom   3   17.999989
:CINT004 Core Integral Atom   4   17.999989

       DENSITY AT NUCLEUS
        JATOM        VALENCE       SEMI-CORE          CORE           TOTAL
:RTO001:   1     1948.173653        0.000000  9911353.044950  9913301.218603
:RTO002:   2      320.978276        0.000000   438170.995136   438491.973411
:RTO003:   3       73.573465        0.000000    45839.118218    45912.691683
:RTO004:   4       73.558430        0.000000    45839.118206    45912.676636
     
       CHARGES OF NEW CHARGE DENSITY
:NTO   : INTERSTITIAL CHARGE =    34.075142
:NPC   : PW Pseudocharge     =   114.852646
:NTO001: CHARGE SPHERE  1    =    79.328697
:NTO002: CHARGE SPHERE  2    =    52.301920
:NTO003: CHARGE SPHERE  3    =    33.948095
:NTO004: CHARGE SPHERE  4    =    33.948710

:NEC01: NUCLEAR AND ELECTRONIC CHARGE    968.00000   967.97967
     
       CHARGES OF OLD CHARGE DENSITY
:OTO   : INTERSTITIAL CHARGE =    36.551585
:OPC   : PW Pseudocharge     =   120.497496
:OTO001: CHARGE SPHERE  1    =    79.797290
:OTO002: CHARGE SPHERE  2    =    52.317535
:OTO003: CHARGE SPHERE  3    =    33.582821
:OTO004: CHARGE SPHERE  4    =    33.582229

:NEC02: NUCLEAR AND ELECTRONIC CHARGE    968.00000   968.00000
     
       CONVERGENCE TEST
:DTO001: DIFFERENCE IN SPHERE  1 =  0.2441783
:DTO002: DIFFERENCE IN SPHERE  2 =  0.0706914
:DTO003: DIFFERENCE IN SPHERE  3 =  0.1842846
:DTO004: DIFFERENCE IN SPHERE  4 =  0.1849308

:DIS  :  CHARGE DISTANCE       ( 0.2441783 for atom    1 spin 1)      0.1738032
 PW Mixed is         3296
 
******************************************************
* MULTISECANT MIXING VER9 RELEASE 10.4.0              *
* Slow Mode, cautious                                *
* Fixed density scale                                *
* Regularization       1.000E-04                     *
* Step Trust Radius    0.75000                       *
* Trust Upper Limit    2.000E+00                     *
* Max Number of Memory Steps   12                    *
******************************************************
 
:PWTMP   3.9481E+03  2.5000E+03  5.2571E+03
:PLANE:  PW TOTAL      9.6818 DISTAN   7.77E-01  8.03E+00 %
:CHARG:  CLM/ATOM   1115.9674 DISTAN   2.07E-01  1.85E-02 %
 
Step History
        DMIX         DMIXT        Red     Pred      Trust     Lambda    MagRel    MagAbs     Beta
  1   3.5000E-02   3.5000E-02 -1.00E+00  1.00E+00 -1.00E+01  1.00E+00  3.50E-02  3.50E-02  1.00E+00
  2   2.5000E-02   2.5000E-02 -1.00E+00  1.00E+00 -1.00E+01  1.00E+00  2.50E-02  7.31E-02  1.00E+00
:JACOBIANS    4.982E-01   1.049E-04
  
:TRUST:  Step 3.81E-02  Charge 7.50E-02 (e) CTO  4.43E-01 (e) PW  6.21E-01 (e)
:DIRM :  MEMORY  1/12 SCALE   1.000
:MIX  :   PRATT  REGULARIZATION:  1.00E-04 GREED: 0.03814  Expand 1.53  0.0381                
     
       CHARGES OF MIXED CHARGE DENSITY
:CTO   : INTERSTITIAL CHARGE =    36.536122
:CPC   : PW Pseudocharge     =   117.916578
:CTO001: CHARGE SPHERE  1    =    79.794382
:CTO002: CHARGE SPHERE  2    =    52.317430
:CTO003: CHARGE SPHERE  3    =    33.585109
:CTO004: CHARGE SPHERE  4    =    33.584524

:NEC03: NUCLEAR AND ELECTRONIC CHARGE    968.00000   968.00000

PW CHANGE     H    K    L      Current       Change    Residue
:PTO001:      0    0    0  2.93799797E-02 -4.939E-04 -1.528E-03
:PTO006:     -1    0   -1 -2.63316484E-03  2.931E-05  3.829E-05
:PTO007:      0    0   -2  2.87656229E-03 -4.948E-04 -1.303E-03
:PTO008:     -1   -1    0  5.43507946E-03 -1.010E-03 -2.606E-03
:PTO009:     -1   -1   -1 -1.15638204E-02  1.875E-04  2.738E-04
:PTO012:      0   -2    0  7.66814191E-03 -6.478E-04 -1.422E-03
:PTO013:     -1   -1   -2  2.39473112E-02 -2.568E-03 -6.075E-03
:PTO014:     -2    0    0  7.62133938E-03 -6.574E-04 -1.434E-03
:PTO015:      0   -2   -1  6.45201748E-03 -1.482E-04 -4.194E-04
:PTO018:     -1   -2    0 -1.18009167E-02  8.599E-05 -1.580E-04
:PTO019:     -2   -1    0  1.29951947E-02 -9.808E-05  1.607E-04
:PTO021:     -1   -2   -1  1.36037826E-02 -9.861E-05  1.566E-04

:ENE  : ********** TOTAL ENERGY IN Ry =      -292313.31327832

       TOTAL FORCE IN mRy/a.u. = |F|     Fx             Fy             Fz     with/without FOR in case.in2
:FOR001:   1.ATOM          0.000          0.000          0.000          0.000 partial forces
:FOR002:   2.ATOM          4.095          4.080          0.348          0.000 partial forces
:FOR003:   3.ATOM         99.398        -40.594        -90.731          0.000 partial forces
:FOR004:   4.ATOM         75.768         23.092         46.566         55.128 partial forces
       TOTAL FORCE WITH RESPECT TO GLOBAL CARTESIAN COORDINATES:
:FCA001:   1.ATOM                         0.000          0.000          0.000 partial forces
:FCA002:   2.ATOM                         4.080          0.348          0.000 partial forces
:FCA003:   3.ATOM                       -40.594        -90.731          0.000 partial forces
:FCA004:   4.ATOM                        23.092         46.566         55.128 partial forces
       TOTAL FORCE WITH RESPECT TO THE GLOBAL COORDINATE SYSTEM:
:FGL001:   1.ATOM                 0.000000000     0.000000000     0.000000000 partial forces
:FGL002:   2.ATOM                 4.080144672     0.347833775     0.000000000 partial forces
:FGL003:   3.ATOM               -40.594099765   -90.730801307     0.000000000 partial forces
:FGL004:   4.ATOM                23.091655072    46.566239813    55.128105921 partial forces
 Flat Integration
 New Mode for Coulomb Integral
 Consistent 3/8+Simpson combinations
 Extension of core to zero
 LDM version in phi
 Fifth-order quadrature in outwin


            ---------
:ITE003:  3. ITERATION
            ---------

:NATO :    4 INDEPENDENT AND   20 TOTAL ATOMS IN UNITCELL
       SUBSTANCE: blebleble                                                   

       LATTICE                      = P   
:POT  : POTENTIAL OPTION EX_PBE EC_PBE VX_PBE VC_PBE
:LAT  : LATTICE CONSTANTS= 15.19415 15.66734 22.08372    1.571    1.571    1.571
:VOL  : UNIT CELL VOLUME =    5257.07306
       MODE OF CALCULATION IS       = RELA
       NON-SPINPOLARIZED CALCULATION
:IFFT  : FFT-parameters:  120  120  180 Factor: 2.00


   CONVERGENCE PARAMETER FOR PSEUDOCHARGE: NCON=  9
   MAXIMAL VALUE OF RMT(JATOM)*ABSK(NKK) : RK  =29.99804


:VKCOUL :  VK-COUL convergence: 0.237E-08
       ATOMNUMBER=  1 Pb         VCOUL-ZERO =  0.97935E-01
:EFG001:                        EFG         =     0.03515   *10**21  V / m**2
                               V20  TOT/SRF=    -0.02058     0.00189
                               V22  TOT/SRF=     0.00738    -0.00071
                               V22M TOT/SRF=     0.01988    -0.00083
                               V21  TOT/SRF=    -0.00879     0.00315
                               V21M TOT/SRF=    -0.00664    -0.00510

              0.01926    0.01988   -0.00879        0.03515    0.00000    0.00000
              0.01988    0.00450   -0.00664        0.00000   -0.00932    0.00000
             -0.00879   -0.00664   -0.02376        0.00000    0.00000   -0.02583

         MAIN DIRECTIONS OF THE EFG   1.0000 -0.7053  0.1384
                                      0.6983  1.0000  0.1283
                                     -0.2280 -0.0306  1.0000
:ANG001:  ANGLE WITH OLD X-AXIS =        35.7

:ETA001:                         ASYMM. ETA =     0.46986


       ATOMNUMBER=  2 Cs         VCOUL-ZERO = -0.54098E-01
:EFG002:                        EFG         =     0.05700   *10**21  V / m**2
                               V20  TOT/SRF=    -0.01193    -0.00046
                               V22  TOT/SRF=     0.01007    -0.00050
                               V22M TOT/SRF=     0.04909    -0.00101
                               V21  TOT/SRF=     0.00000     0.00000
                               V21M TOT/SRF=     0.00000     0.00000

              0.01696    0.04909    0.00000        0.05700    0.00000    0.00000
              0.04909   -0.00318    0.00000        0.00000   -0.04322    0.00000
              0.00000    0.00000   -0.01377        0.00000    0.00000   -0.01377

         MAIN DIRECTIONS OF THE EFG   1.0000 -0.8157  0.0000
                                      0.8157  1.0000  0.0000
                                      0.0000  0.0000  1.0000
:ANG002:  ANGLE WITH OLD X-AXIS =        39.2

:ETA002:                         ASYMM. ETA =     0.51670


       ATOMNUMBER=  3 Br         VCOUL-ZERO =  0.27801E+00
:EFG003:                        EFG         =     0.38395   *10**21  V / m**2
                               V20  TOT/SRF=     0.33251     0.06376
                               V22  TOT/SRF=     0.02305     0.00572
                               V22M TOT/SRF=    -0.02168    -0.01135
                               V21  TOT/SRF=     0.00000     0.00000
                               V21M TOT/SRF=     0.00000     0.00000

             -0.16892   -0.02168    0.00000       -0.16033    0.00000    0.00000
             -0.02168   -0.21503    0.00000        0.00000   -0.22362    0.00000
              0.00000    0.00000    0.38395        0.00000    0.00000    0.38395

         MAIN DIRECTIONS OF THE EFG   1.0000  0.3963  0.0000
                                     -0.3963  1.0000  0.0000
                                      0.0000  0.0000  1.0000
:ANG003:  ANGLE WITH OLD X-AXIS =        21.6

:ETA003:                         ASYMM. ETA =     0.16484


       ATOMNUMBER=  4 Br         VCOUL-ZERO =  0.27806E+00
:EFG004:                        EFG         =     0.36310   *10**21  V / m**2
                               V20  TOT/SRF=    -0.15029    -0.02758
                               V22  TOT/SRF=    -0.01803    -0.00450
                               V22M TOT/SRF=    -0.27446    -0.05247
                               V21  TOT/SRF=    -0.03086    -0.00406
                               V21M TOT/SRF=     0.00696     0.00787

              0.06874   -0.27446   -0.03086        0.36310    0.00000    0.00000
             -0.27446    0.10480    0.00696        0.00000   -0.20053    0.00000
             -0.03086    0.00696   -0.17354        0.00000    0.00000   -0.16257

         MAIN DIRECTIONS OF THE EFG  -0.9394  1.0000 -0.4703
                                      1.0000  0.8780 -0.5088
                                      0.0670  0.9170  1.0000
:ANG004:  ANGLE WITH OLD X-AXIS =       130.4

:ETA004:                         ASYMM. ETA =     0.10454


     HELLMANN-FEYNMAN-FORCE IN mRy/a.u. = |F|  Fx       Fy             Fz
:FHF001:   1.ATOM      0.000000000000      0.000000000000      0.000000000000      0.000000000000

     HELLMANN-FEYNMAN-FORCE IN mRy/a.u. = |F|  Fx       Fy             Fz
:FHF002:   2.ATOM     12.254457095375     12.157322100394      1.539882479176      0.000000000000

     HELLMANN-FEYNMAN-FORCE IN mRy/a.u. = |F|  Fx       Fy             Fz
:FHF003:   3.ATOM    202.155196380754    -78.158860335125   -186.434749912283      0.000000000000

     HELLMANN-FEYNMAN-FORCE IN mRy/a.u. = |F|  Fx       Fy             Fz
:FHF004:   4.ATOM    148.554416281522     42.668956506432     91.315990833359    109.129118779168

:FIT001: LUSE= 13 SIGMA OF V-XC FIT FOR ATOM  1  0.7701836E-03
:FIT001: LUSE= 13 SIGMA OF V-XC FIT FOR ATOM  1  0.7701836E-03
:FIT002: LUSE= 13 SIGMA OF V-XC FIT FOR ATOM  2  0.1715985E-04
:FIT002: LUSE= 13 SIGMA OF V-XC FIT FOR ATOM  2  0.1715985E-04
:FIT003: LUSE= 13 SIGMA OF V-XC FIT FOR ATOM  3  0.7107993E-03
:FIT003: LUSE= 13 SIGMA OF V-XC FIT FOR ATOM  3  0.7107993E-03
:FIT004: LUSE= 13 SIGMA OF V-XC FIT FOR ATOM  4  0.6318245E-03
:FIT004: LUSE= 13 SIGMA OF V-XC FIT FOR ATOM  4  0.6318245E-03
:DEN  : DENSITY INTEGRAL  =       -114056.04086314   (Ry)
       ELS_POTENTIAL_AT Z=0 and Z=0.5:  -0.54456  -0.54456
       ELS_POTENTIAL_AT Y=0 and Y=0.5:  -0.45634  -0.45634
:VZERO:v0,v0c,v0x  -1.26442  -0.54456  -0.71986 v5,v5c,v5x  -1.26442  -0.54456  -0.71986
:VZERY:v0,v0c,v0x  -1.09470  -0.45634  -0.63836 v5,v5c,v5x  -1.09470  -0.45634  -0.63836
:VZERX:v0,v0c,v0x  -1.08726  -0.45559  -0.63168 v5,v5c,v5x  -1.08726  -0.45559  -0.63168
:LMAX-WF:   10   Non-Spherical LMAX:   4

          ATOMIC SPHERE DEPENDENT PARAMETERS FOR ATOM  Pb        
:e__0001: OVERALL ENERGY PARAMETER IS    0.0027
          OVERALL BASIS SET ON ATOM IS LAPW
:E2_0001: E( 2)=    0.4027
             APW+lo
:E2_0001: E( 2)=   -0.9516   E(BOTTOM)=   -1.189   E(TOP)=   -0.714  2  3   126
             LOCAL ORBITAL
:E0_0001: E( 0)=    0.0027
             APW+lo
:E1_0001: E( 1)=    0.0027
             APW+lo

          ATOMIC SPHERE DEPENDENT PARAMETERS FOR ATOM  Cs        
:e__0002: OVERALL ENERGY PARAMETER IS    0.0027
          OVERALL BASIS SET ON ATOM IS LAPW
:E2_0002: E( 2)=    0.0027
             APW+lo
:E2_0002: E( 2)=   -4.8623   E(BOTTOM)=   -4.874   E(TOP)=   -4.851  1  2   125
             LOCAL ORBITAL
:E0_0002: E( 0)=    0.4027
             APW+lo
:E0_0002: E( 0)=   -1.3709   E(BOTTOM)=   -2.054   E(TOP)=   -0.688  4  5   166
             LOCAL ORBITAL
:E1_0002: E( 1)=    0.4027
             APW+lo
:E1_0002: E( 1)=   -0.1981   E(BOTTOM)=   -1.170   E(TOP)=    0.774  3  4   202
             LOCAL ORBITAL

          ATOMIC SPHERE DEPENDENT PARAMETERS FOR ATOM  Br        
:e__0003: OVERALL ENERGY PARAMETER IS    0.0027
          OVERALL BASIS SET ON ATOM IS LAPW
:E2_0003: E( 2)=    0.0027
             APW+lo
:E2_0003: E( 2)=   -4.3396   E(BOTTOM)=   -4.343   E(TOP)=   -4.336  1  1   122
             LOCAL ORBITAL
:E0_0003: E( 0)=    0.4027
             APW+lo
:E0_0003: E( 0)=   -0.9467   E(BOTTOM)=   -1.513   E(TOP)=   -0.381  3  4   163
             LOCAL ORBITAL
:E1_0003: E( 1)=    0.0027
             APW+lo

          ATOMIC SPHERE DEPENDENT PARAMETERS FOR ATOM  Br        
:e__0004: OVERALL ENERGY PARAMETER IS    0.0027
          OVERALL BASIS SET ON ATOM IS LAPW
:E2_0004: E( 2)=    0.0027
             APW+lo
:E2_0004: E( 2)=   -4.3397   E(BOTTOM)=   -4.343   E(TOP)=   -4.336  1  1   122
             LOCAL ORBITAL
:E0_0004: E( 0)=    0.4027
             APW+lo
:E0_0004: E( 0)=   -0.9468   E(BOTTOM)=   -1.513   E(TOP)=   -0.381  3  4   160
             LOCAL ORBITAL
:E1_0004: E( 1)=    0.0027
             APW+lo

       K=   0.04545   0.04545   0.07143            1
:RKM  : MATRIX SIZE  3202LOs: 308  RKM= 8.00  WEIGHT= 8.00  PGR:    
       EIGENVALUES ARE:
:EIG00001:      -4.8599777   -4.8599694   -4.8599667   -4.8599634   -4.8599584
:EIG00006:      -4.8599560   -4.8599552   -4.8599538   -4.8599523   -4.8599476
:EIG00011:      -4.8599457   -4.8599445   -4.8599426   -4.8599352   -4.8599341
:EIG00016:      -4.8599282   -4.8599249   -4.8599238   -4.8599208   -4.8599113
:EIG00021:      -4.3396226   -4.3396215   -4.3396202   -4.3396186   -4.3395858
:EIG00026:      -4.3395853   -4.3395849   -4.3395845   -4.3395838   -4.3395826
:EIG00031:      -4.3395818   -4.3395815   -4.3393263   -4.3393261   -4.3393257
:EIG00036:      -4.3393244   -4.3392583   -4.3392568   -4.3392561   -4.3392549
:EIG00041:      -4.3392539   -4.3392531   -4.3392526   -4.3392522   -4.3391919
:EIG00046:      -4.3391897   -4.3391889   -4.3391868   -4.3391851   -4.3391839
 
:EIG00051:      -4.3391833   -4.3391828   -4.3390409   -4.3390406   -4.3390403
:EIG00056:      -4.3390393   -4.3385977   -4.3385967   -4.3385964   -4.3385952
:EIG00061:      -4.3385948   -4.3385938   -4.3385934   -4.3385900   -4.3385510
:EIG00066:      -4.3385504   -4.3385482   -4.3385474   -4.3385458   -4.3385443
:EIG00071:      -4.3385442   -4.3385437   -4.3385415   -4.3385406   -4.3385400
:EIG00076:      -4.3385381   -4.3384760   -4.3384730   -4.3384694   -4.3384685
:EIG00081:      -1.3770679   -1.3769077   -1.3767278   -1.3766230   -0.9738948
:EIG00086:      -0.9734797   -0.9733852   -0.9720633   -0.9702499   -0.9665764
:EIG00091:      -0.9486588   -0.9484108   -0.9483492   -0.9479424   -0.9474267
:EIG00096:      -0.9469750   -0.9208668   -0.9204657   -0.9199905   -0.9147554
 
:EIG00101:      -0.9147314   -0.9146298   -0.9144975   -0.9143707   -0.9143470
:EIG00106:      -0.9143245   -0.9142617   -0.9139284   -0.9138809   -0.9137180
:EIG00111:      -0.9135934   -0.9080305   -0.8946074   -0.8819534   -0.8817669
:EIG00116:      -0.8815096   -0.4191890   -0.4178688   -0.4168414   -0.4162625
:EIG00121:      -0.4146696   -0.4142475   -0.4140001   -0.4125265   -0.4124730
:EIG00126:      -0.4122204   -0.4118116   -0.4110164   -0.4100851   -0.3751284
:EIG00131:      -0.3349856   -0.2746919   -0.1514453   -0.1506691   -0.1477233
:EIG00136:      -0.1434882   -0.1416386   -0.1329438   -0.0997784   -0.0821616
:EIG00141:      -0.0791425   -0.0777004   -0.0763474   -0.0691433   -0.0602935
:EIG00146:      -0.0544936   -0.0522114   -0.0496418   -0.0470337   -0.0445977
 
:EIG00151:      -0.0433173   -0.0412456   -0.0407877   -0.0395867   -0.0330066
:EIG00156:      -0.0288801   -0.0285520   -0.0281494   -0.0256847   -0.0241963
:EIG00161:      -0.0229890   -0.0204123   -0.0189261   -0.0185719   -0.0012352
:EIG00166:       0.0520638    0.1001408    0.1531798    0.3321243    0.3357631
:EIG00171:       0.3397731    0.3644494    0.3776479    0.3954423    0.4008294
:EIG00176:       0.4800913    0.4858265    0.4927823    0.4979065    0.5251982
:EIG00181:       0.5279550    0.5325842    0.5398741    0.5442639    0.5448347
:EIG00186:       0.5484831    0.5539151    0.5552868    0.5692378    0.5734827
:EIG00191:       0.5747997    0.5819747    0.5947693    0.5981345    0.6023288
:EIG00196:       0.6081253    0.6095255    0.6146569    0.6172564    0.6270422
 
:EIG00201:       0.6324651    0.6367146    0.6453115    0.6535373    0.6556866
:EIG00206:       0.6724308    0.6788084    0.6877620    0.6945587    0.6995223
:EIG00211:       0.7126103    0.7289957    0.7391948    0.7468121    0.7541296
:EIG00216:       0.7567477    0.7593206    0.7645643    0.7740783    0.7838412
:EIG00221:       0.7849841    0.7892607    0.7921706    0.8298110    0.8485897
:EIG00226:       0.8538805    0.8564978    0.8613749    0.8626358    0.8655697
:EIG00231:       0.8694078    0.8790178    0.8930206    0.8951913    0.9059073
:EIG00236:       0.9220737    0.9337607    0.9409620    0.9490107    0.9535588
:EIG00241:       0.9556986    0.9648497    0.9760829    0.9813200    0.9927113
:EIG00246:       0.9946465    1.0050538    1.0093810    1.0102796    1.0133768
 
:EIG00251:       1.0217957    1.0239673    1.0370991    1.0540412    1.0610761
:EIG00256:       1.0680939    1.0725014    1.0805962    1.0821231    1.0852027
:EIG00261:       1.0883074    1.0929060    1.0948659    1.0986752    1.1032417
:EIG00266:       1.1077087    1.1132117    1.1193136    1.1208987    1.1265956
:EIG00271:       1.1300671    1.1352349    1.1406081    1.1436186    1.1511850
:EIG00276:       1.1561332    1.1598853    1.1639740    1.1648046    1.1686484
:EIG00281:       1.1734010    1.1759334    1.1793861    1.1810372    1.1866753
:EIG00286:       1.1894419    1.1952516    1.1988543    1.2051633    1.2116130
:EIG00291:       1.2165376    1.2195653    1.2226744    1.2280815    1.2321596
:EIG00296:       1.2333507    1.2413820    1.2441513    1.2461737    1.2561942
 
:EIG00301:       1.2634740    1.2676726    1.2738109    1.2777088    1.2804320
:EIG00306:       1.2870806    1.2997317    1.3053366    1.3080726    1.3101307
:EIG00311:       1.3114143    1.3178969    1.3295295    1.3358257    1.3476495
:EIG00316:       1.3523097    1.3590314    1.3624054    1.3693200    1.3738689
:EIG00321:       1.3790354    1.3838100    1.3917912    1.3962173    1.3981704
:EIG00326:       1.4064596    1.4098216    1.4194743    1.4213288    1.4251363
:EIG00331:       1.4330638    1.4377970    1.4428618    1.4467131    1.4578810
:EIG00336:       1.4594954    1.4616797    1.4633260    1.4664269    1.4726640
:EIG00341:       1.4768215    1.4795436    1.4846378    1.4898563    1.4920391
:EIG00346:       1.4984537    1.5056951    1.5105562    1.5145710    1.5195498
 
:EIG00351:       1.5206747    1.5211445    1.5306650    1.5335982    1.5479956
:EIG00356:       1.5547763    1.5594443    1.5669963    1.5753065    1.5794832
:EIG00361:       1.5845122    1.5876092    1.6021961    1.6050506    1.6159829
:EIG00366:       1.6196377    1.6262757    1.6302108    1.6352139    1.6460557
:EIG00371:       1.6505143    1.6541905    1.6571631    1.6654552    1.6691072
:EIG00376:       1.6706555    1.6717710    1.6819476    1.6865284    1.6993828
       ********************************************************

:KPT   :      NUMBER OF K-POINTS:   144
       Insulator, EF-inconsistency corrected
:GAP (global)   :  0.178944 Ry =     2.435 eV (accurate value if proper k-mesh)
         Bandranges (emin - emax) and occupancy:
:BAN00158: 158   -0.037130   -0.025801  2.00000000
:BAN00159: 159   -0.034259   -0.025492  2.00000000
:BAN00160: 160   -0.034259   -0.024196  2.00000000
:BAN00161: 161   -0.030223   -0.022134  2.00000000
:BAN00162: 162   -0.029278   -0.020008  2.00000000
:BAN00163: 163   -0.024083   -0.014400  2.00000000
:BAN00164: 164   -0.024083   -0.014400  2.00000000
:BAN00165: 165   -0.001235    0.062823  2.00000000
:BAN00166: 166    0.008211    0.064589  2.00000000
:BAN00167: 167    0.036307    0.115475  2.00000000
:BAN00168: 168    0.036307    0.153180  2.00000000
:BAN00169: 169    0.332124    0.435534  0.00000000
:BAN00170: 170    0.335763    0.435534  0.00000000
:BAN00171: 171    0.339773    0.441598  0.00000000
:BAN00172: 172    0.357535    0.441598  0.00000000
:BAN00173: 173    0.373877    0.459030  0.00000000
        Energy to separate low and high energystates:   -0.46919


:NOE  : NUMBER OF ELECTRONS          =  336.000

:FER  : F E R M I - ENERGY(TETRAH.M.)=   0.1531798191
:GMA  : POTENTIAL AND CHARGE CUT-OFF  12.00 Ry**.5

:POS001: ATOM   -1 X,Y,Z = 0.50000 0.50000 0.50000  MULT= 4  ZZ= 82.000  Pb        

       LMMAX 28
       LM=   0 0  2 0  2 1 -2 1  2 2 -2 2  4 0  4 1 -4 1  4 2 -4 2  4 3 -4 3  4 4 -4 4  6 0  6 1
        -6 1  6 2 -6 2  6 3 -6 3  6 4 -6 4  6 5 -6 5  6 6 -6 6

:CHA001: TOTAL VALENCE CHARGE INSIDE SPHERE   1 =  11.3361    (RMT=  2.5000 )
:PCS001: PARTIAL CHARGES SPHERE =  1 S,P,D,F,PX,PY,PZ,D-Z2,D-X2Y2,D-XY,D-XZ,D-YZ 
:QTL001: 1.3325 0.2705 9.7179 0.0128 0.0893 0.0900 0.0912 1.9512 1.9397 1.9499 1.9389 1.9382
        Q-s-low E-s-low   Q-p-low E-p-low   Q-d-low E-d-low   Q-f-low E-f-low
:EPL001:  0.0185 -0.9548    0.0089 -0.9463    9.6437 -0.9159    0.0011 -0.9531
        Q-s-hi  E-s-hi    Q-p-hi  E-p-hi    Q-d-hi  E-d-hi    Q-f-hi  E-f-hi 
:EPH001:  1.3140 -0.2289    0.2616 -0.0938    0.0741 -0.0583    0.0117 -0.0602

                      QXX         QXY         QYY         QZZ       UP TO R
:VZZ001:             0.65253     0.66827     0.13906    -0.79158       2.500

:POS002: ATOM   -2 X,Y,Z = 0.48491 0.94655 0.25000  MULT= 4  ZZ= 55.000  Cs        

       LMMAX 28
       LM=   0 0  1 1 -1 1  2 0  2 2 -2 2  3 1 -3 1  3 3 -3 3  4 0  4 2 -4 2  4 4 -4 4  5 1 -5 1
         5 3 -5 3  5 5 -5 5  6 0  6 2 -6 2  6 4 -6 4  6 6 -6 6

:CHA002: TOTAL VALENCE CHARGE INSIDE SPHERE   2 =  16.3025    (RMT=  2.5000 )
:PCS002: PARTIAL CHARGES SPHERE =  2 S,P,D,F,PX,PY,PZ,D-Z2,D-X2Y2,D-XY,D-XZ,D-YZ 
:QTL002: 1.7964 4.493910.0101 0.0019 1.4972 1.4981 1.4986 2.0016 2.0024 2.0013 2.0021 2.0028
        Q-s-low E-s-low   Q-p-low E-p-low   Q-d-low E-d-low   Q-f-low E-f-low
:EPL002:  1.7868 -1.3764    0.0022 -0.9456    9.9951 -4.8599    0.0000 10.0000
        Q-s-hi  E-s-hi    Q-p-hi  E-p-hi    Q-d-hi  E-d-hi    Q-f-hi  E-f-hi 
:EPH002:  0.0095 -0.0779    4.4917 -0.4014    0.0150 -0.0528    0.0019 -0.0450

                      QXX         QXY         QYY         QZZ       UP TO R
:VZZ002:             0.55955     1.62558    -0.11640    -0.44316       2.500

:POS003: ATOM   -3 X,Y,Z = 0.56000 0.50750 0.25000  MULT= 4  ZZ= 35.000  Br        

       LMMAX 28
       LM=   0 0  1 1 -1 1  2 0  2 2 -2 2  3 1 -3 1  3 3 -3 3  4 0  4 2 -4 2  4 4 -4 4  5 1 -5 1
         5 3 -5 3  5 5 -5 5  6 0  6 2 -6 2  6 4 -6 4  6 6 -6 6

:CHA003: TOTAL VALENCE CHARGE INSIDE SPHERE   3 =  15.9455    (RMT=  2.5000 )
:PCS003: PARTIAL CHARGES SPHERE =  3 S,P,D,F,PX,PY,PZ,D-Z2,D-X2Y2,D-XY,D-XZ,D-YZ 
:QTL003: 1.7964 4.131910.0142 0.0025 1.3968 1.4008 1.3344 2.0109 2.0004 2.0002 2.0017 2.0010
        Q-s-low E-s-low   Q-p-low E-p-low   Q-d-low E-d-low   Q-f-low E-f-low
:EPL003:  1.7649 -0.9479    0.0060 -0.9186   10.0002 -4.3384    0.0006 -0.9234
        Q-s-hi  E-s-hi    Q-p-hi  E-p-hi    Q-d-hi  E-d-hi    Q-f-hi  E-f-hi 
:EPH003:  0.0315 -0.2477    4.1259 -0.0602    0.0140 -0.1170    0.0018 -0.1701

                      QXX         QXY         QYY         QZZ       UP TO R
:VZZ003:            -5.42715    -0.34664    -6.66473    12.09188       2.500

:POS004: ATOM   -4 X,Y,Z = 0.19962 0.70227 0.46752  MULT= 8  ZZ= 35.000  Br        

       LMMAX 49

:CHA004: TOTAL VALENCE CHARGE INSIDE SPHERE   4 =  15.9461    (RMT=  2.5000 )
:PCS004: PARTIAL CHARGES SPHERE =  4 S,P,D,F,PX,PY,PZ,D-Z2,D-X2Y2,D-XY,D-XZ,D-YZ 
:QTL004: 1.7962 4.133210.0137 0.0024 1.3693 1.3661 1.3978 2.0027 2.0019 2.0073 2.0008 2.0010
        Q-s-low E-s-low   Q-p-low E-p-low   Q-d-low E-d-low   Q-f-low E-f-low
:EPL004:  1.7654 -0.9477    0.0058 -0.9178   10.0001 -4.3385    0.0006 -0.9247
        Q-s-hi  E-s-hi    Q-p-hi  E-p-hi    Q-d-hi  E-d-hi    Q-f-hi  E-f-hi 
:EPH004:  0.0308 -0.2482    4.1274 -0.0602    0.0136 -0.1193    0.0018 -0.1641

                      QXX         QXY         QYY         QZZ       UP TO R
:VZZ004:             2.30067    -8.63394     3.27906    -5.57973       2.500

:CHA  : TOTAL VALENCE CHARGE INSIDE UNIT CELL =     336.000000

:SUM  : SUM OF EIGENVALUES =        -801.942053465


        1.ATOM      Pb                   19 CORE STATES
:1S 001: 1S               -6465.876093788 Ry
:2S 001: 2S               -1154.922320016 Ry
:2PP001: 2P*              -1108.912959509 Ry
:2P 001: 2P                -947.954220584 Ry
:3S 001: 3S                -276.711623628 Ry
:3PP001: 3P*               -255.986329784 Ry
:3P 001: 3P                -220.072515197 Ry
:3DD001: 3D*               -186.080886073 Ry
:3D 001: 3D                -178.440567047 Ry
:4S 001: 4S                 -62.146273347 Ry
:4PP001: 4P*                -53.181460560 Ry
:4P 001: 4P                 -44.390762200 Ry
:4DD001: 4D*                -29.809947960 Ry
:4D 001: 4D                 -28.169750267 Ry
:5S 001: 5S                  -9.920989164 Ry
:5PP001: 5P*                 -6.865792995 Ry
:5P 001: 5P                  -5.224302671 Ry
:4FF001: 4F*                 -9.297317243 Ry
:4F 001: 4F                  -8.927582436 Ry

        2.ATOM      Cs                   12 CORE STATES
       CORE-FORCE in mRy/a.u. = |F|      Fx             Fy             Fz
:FCO002:   2.ATOM      8.230945330606     -8.156598486925     -1.103794436708      0.000000000000

:1S 002: 1S               -2628.596705526 Ry
:2S 002: 2S                -411.669713353 Ry
:2PP002: 2P*               -387.232549527 Ry
:2P 002: 2P                -361.340762784 Ry
:3S 002: 3S                 -85.119330727 Ry
:3PP002: 3P*                -74.915936889 Ry
:3P 002: 3P                 -69.954058540 Ry
:3DD002: 3D*                -52.034812291 Ry
:3D 002: 3D                 -50.981478688 Ry
:4S 002: 4S                 -15.584752963 Ry
:4PP002: 4P*                -11.923894452 Ry
:4P 002: 4P                 -10.911942909 Ry

        3.ATOM      Br                    7 CORE STATES
[...]
:EIG00141:      -0.0447689   -0.0434654   -0.0423356   -0.0367123   -0.0279692
:EIG00146:      -0.0176294   -0.0160553   -0.0147563   -0.0131237   -0.0108217
 
:EIG00151:      -0.0098982   -0.0067992   -0.0042832   -0.0026923   -0.0020909
:EIG00156:      -0.0012996   -0.0006296    0.0060215    0.0116692    0.0131690
:EIG00161:       0.0148900    0.0190578    0.0224540    0.0247284    0.0364147
:EIG00166:       0.0525585    0.0901769    0.1354886    0.2810750    0.2834386
:EIG00171:       0.2913488    0.3122106    0.3252805    0.3419246    0.4194517
:EIG00176:       0.4961581    0.4993132    0.5034386    0.5081021    0.5137920
:EIG00181:       0.5150939    0.5188977    0.5318985    0.5385856    0.5466201
:EIG00186:       0.5515006    0.5556019    0.5560635    0.5627090    0.5640956
:EIG00191:       0.5677859    0.5690950    0.5774360    0.5892055    0.5955686
:EIG00196:       0.5981929    0.6181914    0.6211745    0.6254419    0.6332858
 
:EIG00201:       0.6360908    0.6406061    0.6467194    0.6584736    0.6604072
:EIG00206:       0.6799065    0.6862252    0.6891202    0.7010298    0.7099198
:EIG00211:       0.7216565    0.7311456    0.7457551    0.7481078    0.7587524
:EIG00216:       0.7608487    0.7672173    0.7777946    0.7836696    0.7964992
:EIG00221:       0.7978112    0.8037184    0.8050890    0.8292139    0.8494345
:EIG00226:       0.8538849    0.8599844    0.8629614    0.8681572    0.8697238
:EIG00231:       0.8755123    0.8832242    0.8867017    0.8985188    0.9155504
:EIG00236:       0.9277669    0.9339368    0.9417352    0.9525495    0.9563263
:EIG00241:       0.9624537    0.9647657    0.9717986    0.9856640    0.9915961
:EIG00246:       0.9934487    0.9972900    1.0116942    1.0178802    1.0195917
 
:EIG00251:       1.0216537    1.0241285    1.0401284    1.0559511    1.0626052
:EIG00256:       1.0657362    1.0768815    1.0830917    1.0836588    1.0882745
:EIG00261:       1.0888649    1.0985034    1.0999461    1.1042689    1.1077066
:EIG00266:       1.1122460    1.1170113    1.1208694    1.1245827    1.1295048
:EIG00271:       1.1318867    1.1369192    1.1450757    1.1478852    1.1529010
:EIG00276:       1.1589585    1.1645855    1.1661486    1.1663254    1.1700085
:EIG00281:       1.1768993    1.1784717    1.1817002    1.1837646    1.1883536
:EIG00286:       1.1901760    1.1950822    1.2047132    1.2079270    1.2112342
:EIG00291:       1.2192531    1.2212910    1.2255254    1.2310173    1.2350653
:EIG00296:       1.2390015    1.2462041    1.2496491    1.2524064    1.2584725
 
:EIG00301:       1.2663651    1.2703032    1.2723898    1.2779709    1.2830145
:EIG00306:       1.2870446    1.2987231    1.3017141    1.3069340    1.3077213
:EIG00311:       1.3091807    1.3138641    1.3277388    1.3368851    1.3426277
:EIG00316:       1.3477125    1.3594139    1.3642318    1.3715006    1.3740252
:EIG00321:       1.3828758    1.3855006    1.3888219    1.3916001    1.3956202
:EIG00326:       1.4029754    1.4110214    1.4147095    1.4216376    1.4231682
:EIG00331:       1.4274891    1.4351135    1.4362782    1.4473650    1.4575405
:EIG00336:       1.4599049    1.4629660    1.4670844    1.4680296    1.4742526
:EIG00341:       1.4785404    1.4815334    1.4831996    1.4922864    1.4962146
:EIG00346:       1.5031464    1.5043510    1.5147575    1.5159981    1.5236185
 
:EIG00351:       1.5248044    1.5312289    1.5346677    1.5379677    1.5483082
:EIG00356:       1.5568411    1.5634471    1.5664936    1.5780597    1.5787751
:EIG00361:       1.5863299    1.5865754    1.6048963    1.6106763    1.6174852
:EIG00366:       1.6213527    1.6284906    1.6324153
       ********************************************************

:KPT   :      NUMBER OF K-POINTS:   144
       Insulator, EF-inconsistency corrected
:GAP (global)   :  0.145586 Ry =     1.981 eV (accurate value if proper k-mesh)
         Bandranges (emin - emax) and occupancy:
:BAN00158: 158    0.000033    0.012920  2.00000000
:BAN00159: 159    0.001584    0.013629  2.00000000
:BAN00160: 160    0.001584    0.013629  2.00000000
:BAN00161: 161    0.003328    0.017507  2.00000000
:BAN00162: 162    0.003328    0.019058  2.00000000
:BAN00163: 163    0.015302    0.025289  2.00000000
:BAN00164: 164    0.015302    0.025289  2.00000000
:BAN00165: 165    0.029042    0.057354  2.00000000
:BAN00166: 166    0.030554    0.060001  2.00000000
:BAN00167: 167    0.034907    0.100428  2.00000000
:BAN00168: 168    0.034907    0.135489  2.00000000
:BAN00169: 169    0.281075    0.401955  0.00000000
:BAN00170: 170    0.283439    0.401955  0.00000000
:BAN00171: 171    0.291349    0.408438  0.00000000
:BAN00172: 172    0.307979    0.408438  0.00000000
:BAN00173: 173    0.321889    0.421331  0.00000000
        Energy to separate low and high energystates:   -0.20074


:NOE  : NUMBER OF ELECTRONS          =  336.000

:FER  : F E R M I - ENERGY(TETRAH.M.)=   0.1354886075
:GMA  : POTENTIAL AND CHARGE CUT-OFF  12.00 Ry**.5

:POS001: ATOM   -1 X,Y,Z = 0.50000 0.50000 0.50000  MULT= 4  ZZ= 82.000  Pb        

       LMMAX 28
       LM=   0 0  2 0  2 1 -2 1  2 2 -2 2  4 0  4 1 -4 1  4 2 -4 2  4 3 -4 3  4 4 -4 4  6 0  6 1
        -6 1  6 2 -6 2  6 3 -6 3  6 4 -6 4  6 5 -6 5  6 6 -6 6

:CHA001: TOTAL VALENCE CHARGE INSIDE SPHERE   1 =  11.5340    (RMT=  2.5000 )
:PCS001: PARTIAL CHARGES SPHERE =  1 S,P,D,F,PX,PY,PZ,D-Z2,D-X2Y2,D-XY,D-XZ,D-YZ 
:QTL001: 1.3777 0.3897 9.7489 0.0150 0.1294 0.1300 0.1303 1.9578 1.9456 1.9566 1.9448 1.9442
        Q-s-low E-s-low   Q-p-low E-p-low   Q-d-low E-d-low   Q-f-low E-f-low
:EPL001:  1.0868 -0.4520    0.0162 -0.7849    9.6822 -1.0707    0.0015 -0.8358
        Q-s-hi  E-s-hi    Q-p-hi  E-p-hi    Q-d-hi  E-d-hi    Q-f-hi  E-f-hi 
:EPH001:  0.2908  0.0394    0.3735 -0.0874    0.0668 -0.0252    0.0135 -0.0283

                      QXX         QXY         QYY         QZZ       UP TO R
:VZZ001:             0.38123     0.73675    -0.14427    -0.23696       2.500

:POS002: ATOM   -2 X,Y,Z = 0.48491 0.94655 0.25000  MULT= 4  ZZ= 55.000  Cs        

       LMMAX 28
       LM=   0 0  1 1 -1 1  2 0  2 2 -2 2  3 1 -3 1  3 3 -3 3  4 0  4 2 -4 2  4 4 -4 4  5 1 -5 1
         5 3 -5 3  5 5 -5 5  6 0  6 2 -6 2  6 4 -6 4  6 6 -6 6

:CHA002: TOTAL VALENCE CHARGE INSIDE SPHERE   2 =  16.3291    (RMT=  2.5000 )
:PCS002: PARTIAL CHARGES SPHERE =  2 S,P,D,F,PX,PY,PZ,D-Z2,D-X2Y2,D-XY,D-XZ,D-YZ 
:QTL002: 1.7984 4.515410.0129 0.0022 1.5042 1.5053 1.5060 2.0021 2.0031 2.0017 2.0026 2.0035
        Q-s-low E-s-low   Q-p-low E-p-low   Q-d-low E-d-low   Q-f-low E-f-low
:EPL002:  1.7883 -1.3869    4.3859 -0.4212    9.9952 -4.8741    0.0001 -0.8001
        Q-s-hi  E-s-hi    Q-p-hi  E-p-hi    Q-d-hi  E-d-hi    Q-f-hi  E-f-hi 
:EPH002:  0.0101 -0.0406    0.1296 -0.0279    0.0177 -0.0143    0.0021 -0.0053

                      QXX         QXY         QYY         QZZ       UP TO R
:VZZ002:             0.78265     2.19218    -0.08382    -0.69883       2.500

:POS003: ATOM   -3 X,Y,Z = 0.56000 0.50750 0.25000  MULT= 4  ZZ= 35.000  Br        

       LMMAX 28
       LM=   0 0  1 1 -1 1  2 0  2 2 -2 2  3 1 -3 1  3 3 -3 3  4 0  4 2 -4 2  4 4 -4 4  5 1 -5 1
         5 3 -5 3  5 5 -5 5  6 0  6 2 -6 2  6 4 -6 4  6 6 -6 6

:CHA003: TOTAL VALENCE CHARGE INSIDE SPHERE   3 =  15.7647    (RMT=  2.5000 )
:PCS003: PARTIAL CHARGES SPHERE =  3 S,P,D,F,PX,PY,PZ,D-Z2,D-X2Y2,D-XY,D-XZ,D-YZ 
:QTL003: 1.7831 3.963810.0142 0.0030 1.3538 1.3603 1.2497 2.0105 2.0004 2.0002 2.0019 2.0012
        Q-s-low E-s-low   Q-p-low E-p-low   Q-d-low E-d-low   Q-f-low E-f-low
:EPL003:  1.7710 -0.8938    0.0873 -0.4700   10.0047 -4.2738    0.0015 -0.6851
        Q-s-hi  E-s-hi    Q-p-hi  E-p-hi    Q-d-hi  E-d-hi    Q-f-hi  E-f-hi 
:EPH003:  0.0122 -0.0417    3.8765 -0.0227    0.0095 -0.0143    0.0015 -0.0558

                      QXX         QXY         QYY         QZZ       UP TO R
:VZZ003:            -9.02596    -0.27814   -10.93272    19.95868       2.500

:POS004: ATOM   -4 X,Y,Z = 0.19962 0.70227 0.46752  MULT= 8  ZZ= 35.000  Br        

       LMMAX 49

:CHA004: TOTAL VALENCE CHARGE INSIDE SPHERE   4 =  15.7636    (RMT=  2.5000 )
:PCS004: PARTIAL CHARGES SPHERE =  4 S,P,D,F,PX,PY,PZ,D-Z2,D-X2Y2,D-XY,D-XZ,D-YZ 
:QTL004: 1.7830 3.963310.0138 0.0029 1.3067 1.3013 1.3553 2.0027 2.0021 2.0071 2.0009 2.0010
        Q-s-low E-s-low   Q-p-low E-p-low   Q-d-low E-d-low   Q-f-low E-f-low
:EPL004:  1.7710 -0.8926    0.0849 -0.4694   10.0046 -4.2728    0.0014 -0.6874
        Q-s-hi  E-s-hi    Q-p-hi  E-p-hi    Q-d-hi  E-d-hi    Q-f-hi  E-f-hi 
:EPH004:  0.0120 -0.0434    3.8784 -0.0217    0.0092 -0.0168    0.0014 -0.0518

                      QXX         QXY         QYY         QZZ       UP TO R
:VZZ004:             3.94311   -14.23308     5.50473    -9.44784       2.500

:CHA  : TOTAL VALENCE CHARGE INSIDE UNIT CELL =     336.000000

:SUM  : SUM OF EIGENVALUES =        -799.098506604


        1.ATOM      Pb                   19 CORE STATES
:1S 001: 1S               -6466.061246935 Ry
:2S 001: 2S               -1155.097131452 Ry
:2PP001: 2P*              -1109.089858089 Ry
:2P 001: 2P                -948.129581544 Ry
:3S 001: 3S                -276.878160555 Ry
:3PP001: 3P*               -256.153392944 Ry
:3P 001: 3P                -220.238891548 Ry
:3DD001: 3D*               -186.247936200 Ry
:3D 001: 3D                -178.607353577 Ry
:4S 001: 4S                 -62.309449727 Ry
:4PP001: 4P*                -53.344666704 Ry
:4P 001: 4P                 -44.553744680 Ry
:4DD001: 4D*                -29.972805131 Ry
:4D 001: 4D                 -28.332517796 Ry
:5S 001: 5S                 -10.082085320 Ry
:5PP001: 5P*                 -7.027018293 Ry
:5P 001: 5P                  -5.385550819 Ry
:4FF001: 4F*                 -9.459606562 Ry
:4F 001: 4F                  -9.089832856 Ry

        2.ATOM      Cs                   12 CORE STATES
       CORE-FORCE in mRy/a.u. = |F|      Fx             Fy             Fz
:FCO002:   2.ATOM      6.269119212036     -6.268763673479     -0.066766015202      0.000000000000

:1S 002: 1S               -2628.640042503 Ry
:2S 002: 2S                -411.703200372 Ry
:2PP002: 2P*               -387.267928120 Ry
:2P 002: 2P                -361.375512265 Ry
:3S 002: 3S                 -85.141498720 Ry
:3PP002: 3P*                -74.938575883 Ry
:3P 002: 3P                 -69.976272192 Ry
:3DD002: 3D*                -52.058033367 Ry
:3D 002: 3D                 -51.004535774 Ry
:4S 002: 4S                 -15.600093204 Ry
:4PP002: 4P*                -11.939057837 Ry
:4P 002: 4P                 -10.926874245 Ry

        3.ATOM      Br                    7 CORE STATES
       CORE-FORCE in mRy/a.u. = |F|      Fx             Fy             Fz
:FCO003:   3.ATOM     82.168601777603    -70.342558840403     42.468853691508      0.000000000000

:1S 003: 1S                -977.902688107 Ry
:2S 003: 2S                -126.697253286 Ry
:2PP003: 2P*               -114.027907614 Ry
:2P 003: 2P                -110.536438013 Ry
:3S 003: 3S                 -16.865344217 Ry
:3PP003: 3P*                -12.460772348 Ry
:3P 003: 3P                 -11.958474538 Ry

        4.ATOM      Br                    7 CORE STATES
       CORE-FORCE in mRy/a.u. = |F|      Fx             Fy             Fz
:FCO004:   4.ATOM    111.497726028149     76.211909448330     62.304706659511     52.360398162735

:1S 004: 1S                -977.901695460 Ry
:2S 004: 2S                -126.696248117 Ry
:2PP004: 2P*               -114.026904141 Ry
:2P 004: 2P                -110.535434277 Ry
:3S 004: 3S                 -16.864322640 Ry
:3PP004: 3P*                -12.459750376 Ry
:3P 004: 3P                 -11.957452065 Ry
:CINT001 Core Integral Atom   1   67.995197
:CINT002 Core Integral Atom   2   35.999909
:CINT003 Core Integral Atom   3   17.999988
:CINT004 Core Integral Atom   4   17.999988

       DENSITY AT NUCLEUS
        JATOM        VALENCE       SEMI-CORE          CORE           TOTAL
:RTO001:   1     2062.585950        0.000000  9911372.795811  9913435.381761
:RTO002:   2      321.587345        0.000000   438173.486488   438495.073833
:RTO003:   3       72.176184        0.000000    45839.367659    45911.543843
:RTO004:   4       72.168134        0.000000    45839.368542    45911.536676
     
       CHARGES OF NEW CHARGE DENSITY
:NTO   : INTERSTITIAL CHARGE =    35.380016
:NPC   : PW Pseudocharge     =   113.791233
:NTO001: CHARGE SPHERE  1    =    79.529180
:NTO002: CHARGE SPHERE  2    =    52.329026
:NTO003: CHARGE SPHERE  3    =    33.764665
:NTO004: CHARGE SPHERE  4    =    33.763595

:NEC01: NUCLEAR AND ELECTRONIC CHARGE    968.00000   967.98025
     
       CHARGES OF OLD CHARGE DENSITY
:OTO   : INTERSTITIAL CHARGE =    35.402044
:OPC   : PW Pseudocharge     =   113.858582
:OTO001: CHARGE SPHERE  1    =    79.529382
:OTO002: CHARGE SPHERE  2    =    52.328839
:OTO003: CHARGE SPHERE  3    =    33.764480
:OTO004: CHARGE SPHERE  4    =    33.763394

:NEC02: NUCLEAR AND ELECTRONIC CHARGE    968.00000   968.00000
     
       CONVERGENCE TEST
:DTO001: DIFFERENCE IN SPHERE  1 =  0.0005432
:DTO002: DIFFERENCE IN SPHERE  2 =  0.0002137
:DTO003: DIFFERENCE IN SPHERE  3 =  0.0005718
:DTO004: DIFFERENCE IN SPHERE  4 =  0.0005618

:DIS  :  CHARGE DISTANCE       ( 0.0005718 for atom    3 spin 1)      0.0004905
 PW Mixed is         3296
 
******************************************************
* MULTISECANT MIXING VER9 RELEASE 10.4.0              *
* Standard Mode with controls                        *
* Fixed density scale                                *
* Regularization       1.000E-04                     *
* Trust Upper Limit    5.000E+00                     *
* Max Number of Memory Steps    8                    *
******************************************************
 
:PWTMP   3.9481E+03  2.5000E+03  5.2571E+03
:PLANE:  PW TOTAL      9.1498 DISTAN   2.50E-03  2.73E-02 %
:CHARG:  CLM/ATOM   1115.9445 DISTAN   5.96E-04  5.34E-05 %
 
Step History
        DMIX         DMIXT        Red     Pred      Trust     Lambda    MagRel    MagAbs     Beta
  1   3.5000E-02   3.5000E-02 -1.00E+00  1.00E+00 -1.00E+01  1.00E+00  3.50E-02  3.50E-02  1.00E+00
  2   2.5000E-02   2.5000E-02  3.88E-01  1.00E+00 -1.00E+01  1.00E+00  2.50E-02  7.31E-02  1.00E+00
  3   3.8137E-02   3.8137E-02  8.86E-01  1.00E+00 -1.00E+01  1.45E-01  3.81E-02  4.33E-02  1.00E+00
  4   9.5342E-02   9.5342E-02  8.34E-01  1.00E+00  2.92E-01  1.32E+00  9.53E-02  9.60E-02  9.96E-01
  5   2.2631E-01   1.5115E-01  6.68E-01  7.51E-01  5.34E-01  1.34E+00  2.35E-01  1.98E-01  1.00E+00
  6   3.5000E-01   2.8625E-01  4.60E-01  5.32E-01  1.38E+00  1.06E+00  4.83E-01  2.71E-01  1.00E+00
  7   3.5000E-01   3.5000E-01  8.96E-02  1.90E-01  3.91E+00  5.65E-01  1.00E+00  2.58E-01  1.00E+00
  8   2.9895E-01   2.9895E-01  5.07E-01  7.06E-01  1.37E+01  1.00E+00  5.57E-01  1.29E-02  1.00E+00
  9   3.5000E-01   3.5000E-01 -1.00E+00  6.54E-01  1.83E+01  1.00E+00  6.64E-01  7.79E-03  1.00E+00
:JACOBIANS    2.018E+00   1.607E+00
  
:NORMS:  1/Froebius, Min, Max, Used   0.8955E+00  0.5708E+00  0.1054E+01  0.9127E+00
:INFO :  Number of Memory Steps    8 Skipping    0
:INFO :  SLambda=    0.8817159745  Max    0.8817159745
:PREDicted Charge, CTotal, PW Trust    1.214E-03   7.985E-03   1.852E-02
:PREDicted DMix, Beta, BLim   5.3649E-01  1.2261E+00  9.3310E+00

Eigenvalues, unscaled except for SY+YY
   #     SY Real        SY Imag          SS             YY         SY+YY Real      SY+YY Imag
   1   3.627571E+00   0.000000E+00   3.990222E+00   4.789949E+00   7.960907E+00   0.000000E+00
   2   1.597404E+00   0.000000E+00   1.322148E+00   1.858284E+00   3.289470E+00   0.000000E+00
   3   1.075719E+00   0.000000E+00   1.035318E+00   1.077957E+00   2.024457E+00   0.000000E+00
   4   8.525750E-02   0.000000E+00   4.247051E-02   1.752728E-01   2.571801E-01   0.000000E+00
   5   5.329281E-02   0.000000E+00   2.428250E-02   9.752818E-02   1.445472E-01   0.000000E+00
   6   4.806586E-04   0.000000E+00   2.129641E-04   9.934451E-04   1.431716E-03   0.000000E+00
   7   1.807207E-15   0.000000E+00   1.528379E-06   1.425611E-05   7.150240E-07   0.000000E+00
   8   4.321363E-06   0.000000E+00   1.082005E-16   7.127485E-07   1.813511E-05   0.000000E+00
 
:INFO :  Singular value  7.979E+00 Weight  1.000E+00 Projection  1.373E-04
:INFO :  Singular value  3.287E+00 Weight  1.000E+00 Projection  1.616E-03
:INFO :  Singular value  2.023E+00 Weight  1.000E+00 Projection -7.339E-05
:INFO :  Singular value  2.577E-01 Weight  1.000E+00 Projection -1.714E-04
:INFO :  Singular value  1.441E-01 Weight  1.000E+00 Projection -6.631E-03
:INFO :  Singular value  1.432E-03 Weight  8.993E-01 Projection -2.750E-02
:INFO :  Singular value  1.813E-05 Weight  1.431E-03 Projection -7.435E-05
:INFO :  Singular value  7.150E-07 Weight  2.228E-06 Projection -1.600E-07
:RANK :  ACTIVE   5.90/8  =  73.76 % ; YY RANK   5.81/8  =  72.65 %
 
:BLIM :  VZERO Control Off
:TRUST:  Step 2.25E+01  Charge 1.12E-01 (e) CTO  4.29E-01 (e) PW  1.21E+00 (e)
:DIRM :  MEMORY  8/8  SCALE   1.000 RED  0.29 PRED  0.65 NEXT  0.51 
:TRAVE:  Charge 8.58E-03 (e) CTO  3.55E-02 (e) PW  9.67E-02 (e)
:DIRP :  |MSR1|= 2.163E-03 |PRATT|= 2.501E-03 ANGLE=  11.4 DEGREES
:DIRQ :  |MSR1|= 1.659E-03 |PRATT|= 2.383E-03 ANGLE=  18.7 DEGREES
:DIRT :  |MSR1|= 2.726E-03 |PRATT|= 3.454E-03 ANGLE=  16.1 DEGREES
:MIX  :   MSD1   REGULARIZATION:  4.79E-04 GREED: 0.35000  Newton 1.00  0.7892                
     
       CHARGES OF MIXED CHARGE DENSITY
:CTO   : INTERSTITIAL CHARGE =    35.400213
:CPC   : PW Pseudocharge     =   113.851498
:CTO001: CHARGE SPHERE  1    =    79.529366
:CTO002: CHARGE SPHERE  2    =    52.329020
:CTO003: CHARGE SPHERE  3    =    33.764571
:CTO004: CHARGE SPHERE  4    =    33.763495

:NEC03: NUCLEAR AND ELECTRONIC CHARGE    968.00000   968.00000

PW CHANGE     H    K    L      Current       Change    Residue
:PTO001:      0    0    0  2.83906480E-02 -1.696E-06 -1.165E-06
:PTO006:     -1    0   -1 -2.60452072E-03 -7.221E-07 -1.114E-06
:PTO007:      0    0   -2  2.28559489E-03 -1.868E-06 -2.494E-06
:PTO008:     -1   -1    0  4.33392508E-03 -3.998E-06 -5.487E-06
:PTO009:     -1   -1   -1 -1.15701451E-02 -1.751E-06 -2.643E-06
:PTO012:      0   -2    0  7.31643735E-03  2.005E-06  2.465E-06
:PTO013:     -1   -1   -2  2.26168881E-02  1.108E-05  1.388E-05
:PTO014:     -2    0    0  7.31858568E-03  2.560E-06  3.244E-06
:PTO015:      0   -2   -1  6.42467369E-03  1.896E-06  2.574E-06
:PTO018:     -1   -2    0 -1.15738578E-02  1.966E-06  1.955E-06
:PTO019:     -2   -1    0  1.27285441E-02 -2.011E-06 -1.973E-06
:PTO021:     -1   -2   -1  1.32656092E-02 -3.222E-06 -3.547E-06

:ENE  : ********** TOTAL ENERGY IN Ry =      -292313.03699649

       TOTAL FORCE IN mRy/a.u. = |F|     Fx             Fy             Fz     with/without FOR in case.in2
:FOR001:   1.ATOM          0.000          0.000          0.000          0.000 partial forces
:FOR002:   2.ATOM          0.446         -0.115          0.431          0.000 partial forces
:FOR003:   3.ATOM         25.493         23.011        -10.973          0.000 partial forces
:FOR004:   4.ATOM         34.499        -23.388        -19.236        -16.527 partial forces
       TOTAL FORCE WITH RESPECT TO GLOBAL CARTESIAN COORDINATES:
:FCA001:   1.ATOM                         0.000          0.000          0.000 partial forces
:FCA002:   2.ATOM                        -0.115          0.431          0.000 partial forces
:FCA003:   3.ATOM                        23.011        -10.973          0.000 partial forces
:FCA004:   4.ATOM                       -23.388        -19.236        -16.527 partial forces
       TOTAL FORCE WITH RESPECT TO THE GLOBAL COORDINATE SYSTEM:
:FGL001:   1.ATOM                 0.000000000     0.000000000     0.000000000 partial forces
:FGL002:   2.ATOM                -0.114769039     0.431116523     0.000000000 partial forces
:FGL003:   3.ATOM                23.011246174   -10.972522278     0.000000000 partial forces
:FGL004:   4.ATOM               -23.387700842   -19.235781340   -16.527477911 partial forces
