
:LABEL1: Calculations in /home/cmueller/wien/FZU/src/perovskite/rkmax10_1000_gga
:LABEL2: on cv036 at Sat Jun 22 01:21:16 PM CEST 2024
:LABEL3: using WIEN2k_19.1 (Release 25/6/2019) in /home/cmueller/WIENROOT
:LABEL4: using the command: run_lapw
 Flat Integration
 New Mode for Coulomb Integral
 Consistent 3/8+Simpson combinations
 Extension of core to zero
 LDM version in phi
 Fifth-order quadrature in outwin


            ---------
:ITE001:  1. ITERATION
            ---------

:NATO :    4 INDEPENDENT AND   20 TOTAL ATOMS IN UNITCELL
       SUBSTANCE: blebleble                                                   

       LATTICE                      = P   
:POT  : POTENTIAL OPTION EX_PBE EC_PBE VX_PBE VC_PBE
:LAT  : LATTICE CONSTANTS= 15.19415 15.66734 22.08372    1.571    1.571    1.571
:VOL  : UNIT CELL VOLUME =    5257.07306
       MODE OF CALCULATION IS       = RELA
       NON-SPINPOLARIZED CALCULATION
:IFFT  : FFT-parameters:  120  120  180 Factor: 2.00


   CONVERGENCE PARAMETER FOR PSEUDOCHARGE: NCON=  9
   MAXIMAL VALUE OF RMT(JATOM)*ABSK(NKK) : RK  =29.99804


:VKCOUL :  VK-COUL convergence: 0.423E-07
       ATOMNUMBER=  1 Pb         VCOUL-ZERO =  0.10897E+00
:EFG001:                        EFG         =     0.00590   *10**21  V / m**2
                               V20  TOT/SRF=     0.00113     0.00195
                               V22  TOT/SRF=    -0.00027    -0.00077
                               V22M TOT/SRF=    -0.00029    -0.00093
                               V21  TOT/SRF=     0.00242     0.00330
                               V21M TOT/SRF=    -0.00473    -0.00516

             -0.00092   -0.00029    0.00242       -0.00105    0.00000    0.00000
             -0.00029   -0.00038   -0.00473        0.00000    0.00590    0.00000
              0.00242   -0.00473    0.00130        0.00000    0.00000   -0.00485

         MAIN DIRECTIONS OF THE EFG   1.0000  0.3879 -0.5274
                                      0.5164 -0.7730  1.0000
                                      0.0112  1.0000  0.9776
:ANG001:  ANGLE WITH OLD X-AXIS =        33.2

:ETA001:                         ASYMM. ETA =     0.64411


       ATOMNUMBER=  2 Cs         VCOUL-ZERO = -0.49697E-01
:EFG002:                        EFG         =     0.00079   *10**21  V / m**2
                               V20  TOT/SRF=    -0.00038    -0.00033
                               V22  TOT/SRF=    -0.00031    -0.00059
                               V22M TOT/SRF=    -0.00049    -0.00143
                               V21  TOT/SRF=     0.00000     0.00000
                               V21M TOT/SRF=     0.00000     0.00000

             -0.00009   -0.00049    0.00000       -0.00036    0.00000    0.00000
             -0.00049    0.00053    0.00000        0.00000    0.00079    0.00000
              0.00000    0.00000   -0.00043        0.00000    0.00000   -0.00043

         MAIN DIRECTIONS OF THE EFG   1.0000 -0.5459  0.0000
                                      0.5459  1.0000  0.0000
                                      0.0000  0.0000  1.0000
:ANG002:  ANGLE WITH OLD X-AXIS =        28.6

:ETA002:                         ASYMM. ETA =     0.09356


       ATOMNUMBER=  3 Br         VCOUL-ZERO =  0.28031E+00
:EFG003:                        EFG         =    -0.02231   *10**21  V / m**2
                               V20  TOT/SRF=     0.01925     0.05961
                               V22  TOT/SRF=     0.00410     0.00562
                               V22M TOT/SRF=    -0.01042    -0.01150
                               V21  TOT/SRF=     0.00000     0.00000
                               V21M TOT/SRF=     0.00000     0.00000

             -0.00702   -0.01042    0.00000        0.00008    0.00000    0.00000
             -0.01042   -0.01521    0.00000        0.00000   -0.02231    0.00000
              0.00000    0.00000    0.02223        0.00000    0.00000    0.02223

         MAIN DIRECTIONS OF THE EFG   1.0000  0.6813  0.0000
                                     -0.6813  1.0000  0.0000
                                      0.0000  0.0000  1.0000
:ANG003:  ANGLE WITH OLD X-AXIS =        34.3

:ETA003:                         ASYMM. ETA =     0.99277


       ATOMNUMBER=  4 Br         VCOUL-ZERO =  0.28025E+00
:EFG004:                        EFG         =     0.02212   *10**21  V / m**2
                               V20  TOT/SRF=    -0.00625    -0.02554
                               V22  TOT/SRF=    -0.00319    -0.00440
                               V22M TOT/SRF=    -0.01622    -0.04902
                               V21  TOT/SRF=    -0.00456    -0.00425
                               V21M TOT/SRF=     0.00611     0.00781

              0.00042   -0.01622   -0.00456        0.02212    0.00000    0.00000
             -0.01622    0.00679    0.00611        0.00000   -0.01296    0.00000
             -0.00456    0.00611   -0.00722        0.00000    0.00000   -0.00916

         MAIN DIRECTIONS OF THE EFG  -0.8182  1.0000  0.2387
                                      1.0000  0.8580 -0.1399
                                      0.3353 -0.1186  1.0000
:ANG004:  ANGLE WITH OLD X-AXIS =       128.5

:ETA004:                         ASYMM. ETA =     0.17181


     HELLMANN-FEYNMAN-FORCE IN mRy/a.u. = |F|  Fx       Fy             Fz
:FHF001:   1.ATOM      0.000000000000      0.000000000000      0.000000000000      0.000000000000

     HELLMANN-FEYNMAN-FORCE IN mRy/a.u. = |F|  Fx       Fy             Fz
:FHF002:   2.ATOM     13.212661606233     13.207363767740      0.374124347533      0.000000000000

     HELLMANN-FEYNMAN-FORCE IN mRy/a.u. = |F|  Fx       Fy             Fz
:FHF003:   3.ATOM    220.113963888524    -93.045637347661   -199.480992751907      0.000000000000

     HELLMANN-FEYNMAN-FORCE IN mRy/a.u. = |F|  Fx       Fy             Fz
:FHF004:   4.ATOM    174.202709980683     55.580955909951    107.026757789216    125.708450876934

:FIT001: LUSE= 13 SIGMA OF V-XC FIT FOR ATOM  1  0.7571362E-03
:FIT001: LUSE= 13 SIGMA OF V-XC FIT FOR ATOM  1  0.7571362E-03
:FIT002: LUSE= 13 SIGMA OF V-XC FIT FOR ATOM  2  0.1645418E-04
:FIT002: LUSE= 13 SIGMA OF V-XC FIT FOR ATOM  2  0.1645418E-04
:FIT003: LUSE= 13 SIGMA OF V-XC FIT FOR ATOM  3  0.7450639E-03
:FIT003: LUSE= 13 SIGMA OF V-XC FIT FOR ATOM  3  0.7450639E-03
:FIT004: LUSE= 13 SIGMA OF V-XC FIT FOR ATOM  4  0.6626845E-03
:FIT004: LUSE= 13 SIGMA OF V-XC FIT FOR ATOM  4  0.6626845E-03
:DEN  : DENSITY INTEGRAL  =       -114061.79163689   (Ry)
       ELS_POTENTIAL_AT Z=0 and Z=0.5:  -0.57564  -0.57564
       ELS_POTENTIAL_AT Y=0 and Y=0.5:  -0.47943  -0.47943
:VZERO:v0,v0c,v0x  -1.32226  -0.57564  -0.74662 v5,v5c,v5x  -1.32226  -0.57564  -0.74662
:VZERY:v0,v0c,v0x  -1.13920  -0.47943  -0.65976 v5,v5c,v5x  -1.13920  -0.47943  -0.65976
:VZERX:v0,v0c,v0x  -1.13400  -0.48141  -0.65258 v5,v5c,v5x  -1.13400  -0.48141  -0.65258
:LMAX-WF:   10   Non-Spherical LMAX:   4

          ATOMIC SPHERE DEPENDENT PARAMETERS FOR ATOM  Pb        
:e__0001: OVERALL ENERGY PARAMETER IS    0.3000
          OVERALL BASIS SET ON ATOM IS LAPW
:E2_0001: E( 2)=    0.7000
             APW+lo
:E2_0001: E( 2)=   -0.9369   E(BOTTOM)=   -1.175   E(TOP)=   -0.699  2  3   123
             LOCAL ORBITAL
:E0_0001: E( 0)=    0.3000
             APW+lo
:E1_0001: E( 1)=    0.3000
             APW+lo

          ATOMIC SPHERE DEPENDENT PARAMETERS FOR ATOM  Cs        
:e__0002: OVERALL ENERGY PARAMETER IS    0.3000
          OVERALL BASIS SET ON ATOM IS LAPW
:E2_0002: E( 2)=    0.3000
             APW+lo
:E2_0002: E( 2)=   -4.8572   E(BOTTOM)=   -4.869   E(TOP)=   -4.846  1  2   120
             LOCAL ORBITAL
:E0_0002: E( 0)=    0.7000
             APW+lo
:E0_0002: E( 0)=   -1.3662   E(BOTTOM)=   -2.049   E(TOP)=   -0.683  4  5   169
             LOCAL ORBITAL
:E1_0002: E( 1)=    0.7000
             APW+lo
:E1_0002: E( 1)=   -0.1934   E(BOTTOM)=   -1.166   E(TOP)=    0.779  3  4   199
             LOCAL ORBITAL

          ATOMIC SPHERE DEPENDENT PARAMETERS FOR ATOM  Br        
:e__0003: OVERALL ENERGY PARAMETER IS    0.3000
          OVERALL BASIS SET ON ATOM IS LAPW
:E2_0003: E( 2)=    0.3000
             APW+lo
:E2_0003: E( 2)=   -4.3424   E(BOTTOM)=   -4.346   E(TOP)=   -4.339  1  1   115
             LOCAL ORBITAL
:E0_0003: E( 0)=    0.7000
             APW+lo
:E0_0003: E( 0)=   -0.9471   E(BOTTOM)=   -1.512   E(TOP)=   -0.382  3  4   158
             LOCAL ORBITAL
:E1_0003: E( 1)=    0.3000
             APW+lo

          ATOMIC SPHERE DEPENDENT PARAMETERS FOR ATOM  Br        
:e__0004: OVERALL ENERGY PARAMETER IS    0.3000
          OVERALL BASIS SET ON ATOM IS LAPW
:E2_0004: E( 2)=    0.3000
             APW+lo
:E2_0004: E( 2)=   -4.3426   E(BOTTOM)=   -4.346   E(TOP)=   -4.339  1  1   119
             LOCAL ORBITAL
:E0_0004: E( 0)=    0.7000
             APW+lo
:E0_0004: E( 0)=   -0.9473   E(BOTTOM)=   -1.512   E(TOP)=   -0.382  3  4   153
             LOCAL ORBITAL
:E1_0004: E( 1)=    0.3000
             APW+lo

       K=   0.04545   0.04545   0.07143            1
:RKM  : MATRIX SIZE  5967LOs: 308  RKM=10.00  WEIGHT= 8.00  PGR:    
       EIGENVALUES ARE:
:EIG00001:      -4.8550001   -4.8549997   -4.8549993   -4.8549991   -4.8549966
:EIG00006:      -4.8549956   -4.8549955   -4.8549950   -4.8549835   -4.8549833
:EIG00011:      -4.8549831   -4.8549829   -4.8549575   -4.8549574   -4.8549566
:EIG00016:      -4.8549561   -4.8549488   -4.8549487   -4.8549486   -4.8549484
:EIG00021:      -4.3424222   -4.3424220   -4.3424219   -4.3424219   -4.3424218
:EIG00026:      -4.3424218   -4.3424217   -4.3424216   -4.3423244   -4.3423243
:EIG00031:      -4.3423242   -4.3423242   -4.3421546   -4.3421545   -4.3421544
:EIG00036:      -4.3421543   -4.3421543   -4.3421542   -4.3421541   -4.3421541
:EIG00041:      -4.3420893   -4.3420892   -4.3420886   -4.3420884   -4.3420884
:EIG00046:      -4.3420882   -4.3420877   -4.3420876   -4.3420858   -4.3420857
 
:EIG00051:      -4.3420854   -4.3420854   -4.3417970   -4.3417969   -4.3417969
:EIG00056:      -4.3417968   -4.3416518   -4.3416518   -4.3416517   -4.3416517
:EIG00061:      -4.3416516   -4.3416516   -4.3416514   -4.3416514   -4.3416055
:EIG00066:      -4.3416054   -4.3416054   -4.3416053   -4.3416052   -4.3416050
:EIG00071:      -4.3416049   -4.3416047   -4.3414760   -4.3414759   -4.3414758
:EIG00076:      -4.3414758   -4.3414004   -4.3414003   -4.3414003   -4.3414002
:EIG00081:      -1.3724910   -1.3723273   -1.3721456   -1.3720398   -0.9692977
:EIG00086:      -0.9689851   -0.9689186   -0.9683823   -0.9680808   -0.9663720
:EIG00091:      -0.9487299   -0.9484749   -0.9482144   -0.9480483   -0.9476703
:EIG00096:      -0.9472461   -0.9073324   -0.9069805   -0.9067228   -0.9010143
 
:EIG00101:      -0.9009508   -0.9008473   -0.9007774   -0.9006527   -0.9005770
:EIG00106:      -0.9005416   -0.9004555   -0.9001477   -0.9000745   -0.8999311
:EIG00111:      -0.8998882   -0.8965277   -0.8845700   -0.8729945   -0.8728771
:EIG00116:      -0.8725423   -0.4149736   -0.4126397   -0.4121674   -0.4108487
:EIG00121:      -0.4100900   -0.4096794   -0.4090956   -0.4082127   -0.4080109
:EIG00126:      -0.4077312   -0.4072213   -0.4065884   -0.4058550   -0.3661024
:EIG00131:      -0.3255414   -0.2641168   -0.1486642   -0.1477843   -0.1447843
:EIG00136:      -0.1406877   -0.1388567   -0.1298869   -0.0990608   -0.0813395
:EIG00141:      -0.0784161   -0.0769413   -0.0755565   -0.0683825   -0.0595606
:EIG00146:      -0.0541503   -0.0518018   -0.0492991   -0.0465367   -0.0441623
 
:EIG00151:      -0.0429643   -0.0409898   -0.0403590   -0.0390704   -0.0324636
:EIG00156:      -0.0277561   -0.0272912   -0.0268530   -0.0252499   -0.0238092
:EIG00161:      -0.0226255   -0.0203441   -0.0187483   -0.0185459   -0.0006135
:EIG00166:       0.0556963    0.1043933    0.1580589    0.3395179    0.3432419
:EIG00171:       0.3470071    0.3719645    0.3852268    0.4027952    0.4040687
:EIG00176:       0.4829510    0.4886017    0.4961830    0.5009372    0.5304002
:EIG00181:       0.5315902    0.5361454    0.5445257    0.5481184    0.5495777
:EIG00186:       0.5520296    0.5572608    0.5585627    0.5738694    0.5775819
:EIG00191:       0.5778337    0.5848947    0.5991753    0.6036958    0.6066964
:EIG00196:       0.6133379    0.6141863    0.6190433    0.6216389    0.6300942
 
:EIG00201:       0.6361839    0.6411019    0.6489412    0.6571597    0.6591885
:EIG00206:       0.6756257    0.6821114    0.6906857    0.6982144    0.7023980
:EIG00211:       0.7156337    0.7321012    0.7422481    0.7493704    0.7568612
:EIG00216:       0.7598124    0.7619794    0.7672732    0.7767795    0.7865008
:EIG00221:       0.7874630    0.7916024    0.7948933    0.8328477    0.8509616
:EIG00226:       0.8562922    0.8594263    0.8637889    0.8650872    0.8680593
:EIG00231:       0.8721645    0.8812972    0.8959107    0.8979029    0.9077497
:EIG00236:       0.9243244    0.9360901    0.9429598    0.9505880    0.9554332
:EIG00241:       0.9575891    0.9669428    0.9768273    0.9839319    0.9950102
:EIG00246:       0.9973036    1.0073166    1.0098335    1.0114669    1.0133503
 
:EIG00251:       1.0234190    1.0261708    1.0376555    1.0551743    1.0610483
:EIG00256:       1.0674011    1.0700051    1.0772793    1.0792008    1.0829602
:EIG00261:       1.0842100    1.0877951    1.0905006    1.0952140    1.1018186
:EIG00266:       1.1040502    1.1102970    1.1142561    1.1180461    1.1229952
:EIG00271:       1.1277963    1.1306512    1.1352452    1.1391796    1.1478704
:EIG00276:       1.1525963    1.1553846    1.1575698    1.1619679    1.1672895
:EIG00281:       1.1693616    1.1719972    1.1749118    1.1772338    1.1809928
:EIG00286:       1.1862897    1.1930506    1.1935655    1.1971991    1.2009233
:EIG00291:       1.2096667    1.2107493    1.2157191    1.2192130    1.2223385
:EIG00296:       1.2247810    1.2288974    1.2367953    1.2414471    1.2493590
 
:EIG00301:       1.2585302    1.2610465    1.2615110    1.2658595    1.2679055
:EIG00306:       1.2763648    1.2783707    1.2910239    1.2948498    1.3032174
:EIG00311:       1.3065232    1.3121222    1.3131069    1.3231365    1.3270456
:EIG00316:       1.3300346    1.3470907    1.3478236    1.3531084    1.3600481
:EIG00321:       1.3632384    1.3685104    1.3720865    1.3751046    1.3769351
:EIG00326:       1.3804083    1.3880299    1.3963850    1.3996399    1.4109423
:EIG00331:       1.4228346    1.4254437    1.4314257    1.4353053    1.4409524
:EIG00336:       1.4418669    1.4427752    1.4467807    1.4508135    1.4543491
:EIG00341:       1.4590469    1.4607162    1.4657354    1.4685389    1.4749847
:EIG00346:       1.4773217    1.4872991    1.4944386    1.4981070    1.4990992
 
:EIG00351:       1.5041220    1.5141261    1.5165400    1.5253032    1.5367735
:EIG00356:       1.5417191    1.5529962    1.5543747    1.5632401    1.5700576
:EIG00361:       1.5765146    1.5821096    1.5859802    1.5895043    1.6019762
:EIG00366:       1.6061210    1.6085755    1.6169715    1.6218879    1.6350936
:EIG00371:       1.6380679    1.6411082    1.6478057    1.6498882    1.6563688
:EIG00376:       1.6606669    1.6616937    1.6694757    1.6797504    1.6879529
:EIG00381:       1.6911003    1.7011574    1.7025910    1.7044712    1.7127642
:EIG00386:       1.7174828    1.7186761    1.7265023    1.7311448    1.7348586
:EIG00391:       1.7360906    1.7402122    1.7415036    1.7470207    1.7501437
:EIG00396:       1.7591379    1.7645317    1.7687921    1.7753453    1.7836300
 
:EIG00401:       1.7874493    1.7915566    1.7965580    1.7983433    1.8078265
:EIG00406:       1.8084820    1.8114458    1.8128560    1.8191340    1.8225096
:EIG00411:       1.8248310    1.8283832    1.8348935    1.8508256    1.8568306
:EIG00416:       1.8620125    1.8637723    1.8669478    1.8773146    1.8830760
:EIG00421:       1.8881328    1.8895385    1.8975210    1.8987848    1.9040313
:EIG00426:       1.9090634    1.9155725    1.9178374    1.9222652    1.9281722
:EIG00431:       1.9286947    1.9360645    1.9384177    1.9411576    1.9504574
:EIG00436:       1.9618584    1.9648852    1.9713737    1.9768554    1.9811478
:EIG00441:       1.9840939    1.9919357    1.9933056    1.9985831
       ********************************************************

:KPT   :      NUMBER OF K-POINTS:   144
       Insulator, EF-inconsistency corrected
:GAP (global)   :  0.181459 Ry =     2.469 eV (accurate value if proper k-mesh)
         Bandranges (emin - emax) and occupancy:
:BAN00158: 158   -0.036804   -0.025473  2.00000000
:BAN00159: 159   -0.033796   -0.025237  2.00000000
:BAN00160: 160   -0.033796   -0.023809  2.00000000
:BAN00161: 161   -0.029509   -0.021867  2.00000000
:BAN00162: 162   -0.028634   -0.019825  2.00000000
:BAN00163: 163   -0.023755   -0.014284  2.00000000
:BAN00164: 164   -0.023682   -0.014284  2.00000000
:BAN00165: 165   -0.000613    0.066855  2.00000000
:BAN00166: 166    0.010209    0.068612  2.00000000
:BAN00167: 167    0.040655    0.120171  2.00000000
:BAN00168: 168    0.040655    0.158059  2.00000000
:BAN00169: 169    0.339518    0.441102  0.00000000
:BAN00170: 170    0.343242    0.441102  0.00000000
:BAN00171: 171    0.347007    0.447468  0.00000000
:BAN00172: 172    0.364868    0.447468  0.00000000
:BAN00173: 173    0.381451    0.465247  0.00000000
        Energy to separate low and high energystates:   -0.46497


:NOE  : NUMBER OF ELECTRONS          =  336.000

:FER  : F E R M I - ENERGY(TETRAH.M.)=   0.1580588977
:GMA  : POTENTIAL AND CHARGE CUT-OFF  12.00 Ry**.5

:POS001: ATOM   -1 X,Y,Z = 0.50000 0.50000 0.50000  MULT= 4  ZZ= 82.000  Pb        

       LMMAX 28
       LM=   0 0  2 0  2 1 -2 1  2 2 -2 2  4 0  4 1 -4 1  4 2 -4 2  4 3 -4 3  4 4 -4 4  6 0  6 1
        -6 1  6 2 -6 2  6 3 -6 3  6 4 -6 4  6 5 -6 5  6 6 -6 6

:CHA001: TOTAL VALENCE CHARGE INSIDE SPHERE   1 =  11.3290    (RMT=  2.5000 )
:PCS001: PARTIAL CHARGES SPHERE =  1 S,P,D,F,PX,PY,PZ,D-Z2,D-X2Y2,D-XY,D-XZ,D-YZ 
:QTL001: 1.3300 0.2625 9.7214 0.0127 0.0866 0.0873 0.0886 1.9518 1.9404 1.9505 1.9397 1.9390
        Q-s-low E-s-low   Q-p-low E-p-low   Q-d-low E-d-low   Q-f-low E-f-low
:EPL001:  0.0177 -0.9546    0.0087 -0.9465    9.6467 -0.9022    0.0010 -0.9527
        Q-s-hi  E-s-hi    Q-p-hi  E-p-hi    Q-d-hi  E-d-hi    Q-f-hi  E-f-hi 
:EPH001:  1.3123 -0.2172    0.2538 -0.0911    0.0746 -0.0569    0.0116 -0.0588

                      QXX         QXY         QYY         QZZ       UP TO R
:VZZ001:             0.65362     0.65213     0.15896    -0.81258       2.500

:POS002: ATOM   -2 X,Y,Z = 0.48491 0.94655 0.25000  MULT= 4  ZZ= 55.000  Cs        

       LMMAX 28
       LM=   0 0  1 1 -1 1  2 0  2 2 -2 2  3 1 -3 1  3 3 -3 3  4 0  4 2 -4 2  4 4 -4 4  5 1 -5 1
         5 3 -5 3  5 5 -5 5  6 0  6 2 -6 2  6 4 -6 4  6 6 -6 6

:CHA002: TOTAL VALENCE CHARGE INSIDE SPHERE   2 =  16.3014    (RMT=  2.5000 )
:PCS002: PARTIAL CHARGES SPHERE =  2 S,P,D,F,PX,PY,PZ,D-Z2,D-X2Y2,D-XY,D-XZ,D-YZ 
:QTL002: 1.7961 4.493010.0102 0.0019 1.4969 1.4978 1.4983 2.0016 2.0024 2.0013 2.0021 2.0028
        Q-s-low E-s-low   Q-p-low E-p-low   Q-d-low E-d-low   Q-f-low E-f-low
:EPL002:  1.7867 -1.3719    0.0022 -0.9454    9.9955 -4.8549    0.0000 10.0000
        Q-s-hi  E-s-hi    Q-p-hi  E-p-hi    Q-d-hi  E-d-hi    Q-f-hi  E-f-hi 
:EPH002:  0.0094 -0.0773    4.4909 -0.3972    0.0147 -0.0523    0.0019 -0.0445

                      QXX         QXY         QYY         QZZ       UP TO R
:VZZ002:             0.54676     1.59230    -0.12023    -0.42653       2.500

:POS003: ATOM   -3 X,Y,Z = 0.56000 0.50750 0.25000  MULT= 4  ZZ= 35.000  Br        

       LMMAX 28
       LM=   0 0  1 1 -1 1  2 0  2 2 -2 2  3 1 -3 1  3 3 -3 3  4 0  4 2 -4 2  4 4 -4 4  5 1 -5 1
         5 3 -5 3  5 5 -5 5  6 0  6 2 -6 2  6 4 -6 4  6 6 -6 6

:CHA003: TOTAL VALENCE CHARGE INSIDE SPHERE   3 =  15.9605    (RMT=  2.5000 )
:PCS003: PARTIAL CHARGES SPHERE =  3 S,P,D,F,PX,PY,PZ,D-Z2,D-X2Y2,D-XY,D-XZ,D-YZ 
:QTL003: 1.7971 4.145910.0143 0.0024 1.4004 1.4043 1.3412 2.0110 2.0005 2.0002 2.0017 2.0010
        Q-s-low E-s-low   Q-p-low E-p-low   Q-d-low E-d-low   Q-f-low E-f-low
:EPL003:  1.7663 -0.9480    0.0062 -0.9058   10.0003 -4.3412    0.0006 -0.9095
        Q-s-hi  E-s-hi    Q-p-hi  E-p-hi    Q-d-hi  E-d-hi    Q-f-hi  E-f-hi 
:EPH003:  0.0308 -0.2385    4.1397 -0.0592    0.0140 -0.1103    0.0018 -0.1621

                      QXX         QXY         QYY         QZZ       UP TO R
:VZZ003:            -5.13745    -0.36620    -6.35357    11.49102       2.500

:POS004: ATOM   -4 X,Y,Z = 0.19962 0.70227 0.46752  MULT= 8  ZZ= 35.000  Br        

       LMMAX 49

:CHA004: TOTAL VALENCE CHARGE INSIDE SPHERE   4 =  15.9611    (RMT=  2.5000 )
:PCS004: PARTIAL CHARGES SPHERE =  4 S,P,D,F,PX,PY,PZ,D-Z2,D-X2Y2,D-XY,D-XZ,D-YZ 
:QTL004: 1.7969 4.147310.0139 0.0024 1.3745 1.3714 1.4014 2.0028 2.0019 2.0074 2.0009 2.0010
        Q-s-low E-s-low   Q-p-low E-p-low   Q-d-low E-d-low   Q-f-low E-f-low
:EPL004:  1.7668 -0.9480    0.0060 -0.9047   10.0002 -4.3414    0.0006 -0.9105
        Q-s-hi  E-s-hi    Q-p-hi  E-p-hi    Q-d-hi  E-d-hi    Q-f-hi  E-f-hi 
:EPH004:  0.0301 -0.2389    4.1413 -0.0593    0.0136 -0.1124    0.0018 -0.1563

                      QXX         QXY         QYY         QZZ       UP TO R
:VZZ004:             2.16406    -8.20292     3.11399    -5.27806       2.500

:CHA  : TOTAL VALENCE CHARGE INSIDE UNIT CELL =     336.000000

:SUM  : SUM OF EIGENVALUES =        -801.237375991


        1.ATOM      Pb                   19 CORE STATES
:1S 001: 1S               -6465.856478861 Ry
:2S 001: 2S               -1154.903306790 Ry
:2PP001: 2P*              -1108.893817011 Ry
:2P 001: 2P                -947.935173972 Ry
:3S 001: 3S                -276.693360124 Ry
:3PP001: 3P*               -255.968010997 Ry
:3P 001: 3P                -220.054280836 Ry
:3DD001: 3D*               -186.062537820 Ry
:3D 001: 3D                -178.422247597 Ry
:4S 001: 4S                 -62.128808944 Ry
:4PP001: 4P*                -53.163996678 Ry
:4P 001: 4P                 -44.373404565 Ry
:4DD001: 4D*                -29.792605091 Ry
:4D 001: 4D                 -28.152442018 Ry
:5S 001: 5S                  -9.904885030 Ry
:5PP001: 5P*                 -6.849845520 Ry
:5P 001: 5P                  -5.208607376 Ry
:4FF001: 4F*                 -9.280070916 Ry
:4F 001: 4F                  -8.910355399 Ry

        2.ATOM      Cs                   12 CORE STATES
       CORE-FORCE in mRy/a.u. = |F|      Fx             Fy             Fz
:FCO002:   2.ATOM      8.842542940986     -8.835064566040     -0.363592872713      0.000000000000

:1S 002: 1S               -2628.589836052 Ry
:2S 002: 2S                -411.663315835 Ry
:2PP002: 2P*               -387.226059542 Ry
:2P 002: 2P                -361.334303543 Ry
:3S 002: 3S                 -85.113558932 Ry
:3PP002: 3P*                -74.910137637 Ry
:3P 002: 3P                 -69.948285401 Ry
:3DD002: 3D*                -52.028973622 Ry
:3D 002: 3D                 -50.975649671 Ry
:4S 002: 4S                 -15.579493186 Ry
:4PP002: 4P*                -11.918652724 Ry
:4P 002: 4P                 -10.906723180 Ry

        3.ATOM      Br                    7 CORE STATES
       CORE-FORCE in mRy/a.u. = |F|      Fx             Fy             Fz
:FCO003:   3.ATOM    113.798211866841     46.855090037281    103.704549377974      0.000000000000

:1S 003: 1S                -977.960077086 Ry
:2S 003: 2S                -126.757186875 Ry
:2PP003: 2P*               -114.087264181 Ry
:2P 003: 2P                -110.595877631 Ry
:3S 003: 3S                 -16.930995736 Ry
:3PP003: 3P*                -12.526450390 Ry
:3P 003: 3P                 -12.024239283 Ry

        4.ATOM      Br                    7 CORE STATES
       CORE-FORCE in mRy/a.u. = |F|      Fx             Fy             Fz
:FCO004:   4.ATOM     88.726814992281    -27.631481055139    -54.539348517191    -64.299365601025

:1S 004: 1S                -977.960247445 Ry
:2S 004: 2S                -126.757357083 Ry
:2PP004: 2P*               -114.087434426 Ry
:2P 004: 2P                -110.596047870 Ry
:3S 004: 3S                 -16.931164448 Ry
:3PP004: 3P*                -12.526618974 Ry
:3P 004: 3P                 -12.024407776 Ry
:CINT001 Core Integral Atom   1   67.995039
:CINT002 Core Integral Atom   2   35.999909
:CINT003 Core Integral Atom   3   17.999989
:CINT004 Core Integral Atom   4   17.999989

       DENSITY AT NUCLEUS
        JATOM        VALENCE       SEMI-CORE          CORE           TOTAL
:RTO001:   1     1927.710353        0.000000  9911349.920423  9913277.630777
:RTO002:   2      320.902270        0.000000   438170.878700   438491.780970
:RTO003:   3       73.648555        0.000000    45839.135817    45912.784371
:RTO004:   4       73.632459        0.000000    45839.135906    45912.768365
     
       CHARGES OF NEW CHARGE DENSITY
:NTO   : INTERSTITIAL CHARGE =    33.947565
:NPC   : PW Pseudocharge     =   130.985259
:NTO001: CHARGE SPHERE  1    =    79.324031
:NTO002: CHARGE SPHERE  2    =    52.301358
:NTO003: CHARGE SPHERE  3    =    33.960442
:NTO004: CHARGE SPHERE  4    =    33.961095

:NEC01: NUCLEAR AND ELECTRONIC CHARGE    968.00000   967.97965
     
       CHARGES OF OLD CHARGE DENSITY
:OTO   : INTERSTITIAL CHARGE =    36.620362
:OPC   : PW Pseudocharge     =   131.421167
:OTO001: CHARGE SPHERE  1    =    79.809567
:OTO002: CHARGE SPHERE  2    =    52.317982
:OTO003: CHARGE SPHERE  3    =    33.573161
:OTO004: CHARGE SPHERE  4    =    33.572536

:NEC02: NUCLEAR AND ELECTRONIC CHARGE    968.00000   968.00350
     
       CONVERGENCE TEST
:DTO001: DIFFERENCE IN SPHERE  1 =  0.2554825
:DTO002: DIFFERENCE IN SPHERE  2 =  0.0744918
:DTO003: DIFFERENCE IN SPHERE  3 =  0.1925293
:DTO004: DIFFERENCE IN SPHERE  4 =  0.1931898

:DIS  :  CHARGE DISTANCE       ( 0.2554825 for atom    1 spin 1)      0.1817767
 PW Mixed is         6293
 
******************************************************
* MULTISECANT MIXING VER9 RELEASE 10.4.0              *
* Standard Mode with controls                        *
* Fixed density scale                                *
* Regularization       1.000E-04                     *
* Trust Upper Limit    5.000E+00                     *
* Max Number of Memory Steps    8                    *
******************************************************
 
:PWTMP   3.9481E+03  2.5000E+03  5.2571E+03
:PLANE:  PW TOTAL     10.8689 DISTAN   2.51E+00  2.31E+01 %
:CHARG:  CLM/ATOM   1115.9684 DISTAN   2.16E-01  1.94E-02 %
 
Step History
        DMIX         DMIXT        Red     Pred      Trust     Lambda    MagRel    MagAbs     Beta
  1   3.5000E-02   3.5000E-02 -1.00E+00  1.00E+00 -1.00E+01  1.00E+00  3.50E-02  3.50E-02  1.00E+00
:INFO :  Note, Pratt in use
:TRUST:  Step 3.75E-02  Charge 7.50E-02 (e) CTO  4.43E-01 (e) PW  6.21E-01 (e)
:DIRM :  MEMORY  0/ 8 SCALE   1.000
Performing Pseudo Compensation
Final Pseudo Compensation Rescaling     1.00019E+00
:MIX  :   PRATT  REGULARIZATION:  1.00E-04 GREED: 0.02500                  
     
       CHARGES OF MIXED CHARGE DENSITY
:CTO   : INTERSTITIAL CHARGE =    36.550643
:CPC   : PW Pseudocharge     =   130.590200
:CTO001: CHARGE SPHERE  1    =    79.797429
:CTO002: CHARGE SPHERE  2    =    52.317566
:CTO003: CHARGE SPHERE  3    =    33.582843
:CTO004: CHARGE SPHERE  4    =    33.582250

:NEC03: NUCLEAR AND ELECTRONIC CHARGE    968.00000   968.00000

PW CHANGE     H    K    L      Current       Change    Residue
:PTO001:      0    0    0  3.17935172E-02 -1.683E-04 -5.695E-04
:PTO006:     -1    0   -1 -2.85061956E-03 -6.416E-05 -1.470E-04
:PTO007:      0    0   -2  3.47016137E-03 -1.991E-03 -2.994E-03
:PTO008:     -1   -1    0  6.64370444E-03 -4.064E-03 -6.134E-03
:PTO009:     -1   -1   -1 -1.26442784E-02 -1.000E-04 -2.517E-04
:PTO012:      0   -2    0  8.77560345E-03 -2.276E-03 -3.305E-03
:PTO013:     -1   -1   -2  2.75239098E-02 -9.837E-03 -1.462E-02
:PTO014:     -2    0    0  8.72572334E-03 -2.330E-03 -3.371E-03
:PTO015:      0   -2   -1  7.13090716E-03 -9.576E-05 -2.565E-04
:PTO018:     -1   -2    0 -1.32259306E-02 -9.749E-04 -1.731E-03
:PTO019:     -2   -1    0  1.45892833E-02  1.081E-03  1.900E-03
:PTO021:     -1   -2   -1  1.53389140E-02  1.219E-03  2.060E-03

:ENE  : ********** TOTAL ENERGY IN Ry =      -292313.39447135

       TOTAL FORCE IN mRy/a.u. = |F|     Fx             Fy             Fz     with/without FOR in case.in2
:FOR001:   1.ATOM          0.000          0.000          0.000          0.000 partial forces
:FOR002:   2.ATOM          4.372          4.372          0.011          0.000 partial forces
:FOR003:   3.ATOM        106.333        -46.191        -95.776          0.000 partial forces
:FOR004:   4.ATOM         85.482         27.949         52.487         61.409 partial forces
       TOTAL FORCE WITH RESPECT TO GLOBAL CARTESIAN COORDINATES:
:FCA001:   1.ATOM                         0.000          0.000          0.000 partial forces
:FCA002:   2.ATOM                         4.372          0.011          0.000 partial forces
:FCA003:   3.ATOM                       -46.191        -95.776          0.000 partial forces
:FCA004:   4.ATOM                        27.949         52.487         61.409 partial forces
       TOTAL FORCE WITH RESPECT TO THE GLOBAL COORDINATE SYSTEM:
:FGL001:   1.ATOM                 0.000000000     0.000000000     0.000000000 partial forces
:FGL002:   2.ATOM                 4.372299202     0.010531475     0.000000000 partial forces
:FGL003:   3.ATOM               -46.190547310   -95.776443374     0.000000000 partial forces
:FGL004:   4.ATOM                27.949474855    52.487409272    61.409085276 partial forces
 Flat Integration
 New Mode for Coulomb Integral
 Consistent 3/8+Simpson combinations
 Extension of core to zero
 LDM version in phi
 Fifth-order quadrature in outwin


            ---------
:ITE002:  2. ITERATION
            ---------

:NATO :    4 INDEPENDENT AND   20 TOTAL ATOMS IN UNITCELL
       SUBSTANCE: blebleble                                                   

       LATTICE                      = P   
:POT  : POTENTIAL OPTION EX_PBE EC_PBE VX_PBE VC_PBE
:LAT  : LATTICE CONSTANTS= 15.19415 15.66734 22.08372    1.571    1.571    1.571
:VOL  : UNIT CELL VOLUME =    5257.07306
       MODE OF CALCULATION IS       = RELA
       NON-SPINPOLARIZED CALCULATION
:IFFT  : FFT-parameters:  120  120  180 Factor: 2.00


   CONVERGENCE PARAMETER FOR PSEUDOCHARGE: NCON=  9
   MAXIMAL VALUE OF RMT(JATOM)*ABSK(NKK) : RK  =29.99804


:VKCOUL :  VK-COUL convergence: 0.257E-08
       ATOMNUMBER=  1 Pb         VCOUL-ZERO =  0.10558E+00
:EFG001:                        EFG         =     0.02829   *10**21  V / m**2
                               V20  TOT/SRF=    -0.01643     0.00189
                               V22  TOT/SRF=     0.00592    -0.00072
                               V22M TOT/SRF=     0.01602    -0.00085
                               V21  TOT/SRF=    -0.00665     0.00318
                               V21M TOT/SRF=    -0.00627    -0.00510

              0.01540    0.01602   -0.00665        0.02829    0.00000    0.00000
              0.01602    0.00357   -0.00627        0.00000   -0.00746    0.00000
             -0.00665   -0.00627   -0.01897        0.00000    0.00000   -0.02083

         MAIN DIRECTIONS OF THE EFG   1.0000 -0.7353  0.0987
                                      0.7073  1.0000  0.1921
                                     -0.2346 -0.1195  1.0000
:ANG001:  ANGLE WITH OLD X-AXIS =        36.6

:ETA001:                         ASYMM. ETA =     0.47261


       ATOMNUMBER=  2 Cs         VCOUL-ZERO = -0.47663E-01
:EFG002:                        EFG         =     0.04600   *10**21  V / m**2
                               V20  TOT/SRF=    -0.00971    -0.00043
                               V22  TOT/SRF=     0.00807    -0.00052
                               V22M TOT/SRF=     0.03958    -0.00109
                               V21  TOT/SRF=     0.00000     0.00000
                               V21M TOT/SRF=     0.00000     0.00000

              0.01368    0.03958    0.00000        0.04600    0.00000    0.00000
              0.03958   -0.00247    0.00000        0.00000   -0.03479    0.00000
              0.00000    0.00000   -0.01121        0.00000    0.00000   -0.01121

         MAIN DIRECTIONS OF THE EFG   1.0000 -0.8166  0.0000
                                      0.8166  1.0000  0.0000
                                      0.0000  0.0000  1.0000
:ANG002:  ANGLE WITH OLD X-AXIS =        39.2

:ETA002:                         ASYMM. ETA =     0.51268


       ATOMNUMBER=  3 Br         VCOUL-ZERO =  0.28401E+00
:EFG003:                        EFG         =     0.31473   *10**21  V / m**2
                               V20  TOT/SRF=     0.27256     0.06297
                               V22  TOT/SRF=     0.01942     0.00570
                               V22M TOT/SRF=    -0.01953    -0.01138
                               V21  TOT/SRF=     0.00000     0.00000
                               V21M TOT/SRF=     0.00000     0.00000

             -0.13794   -0.01953    0.00000       -0.12982    0.00000    0.00000
             -0.01953   -0.17679    0.00000        0.00000   -0.18491    0.00000
              0.00000    0.00000    0.31473        0.00000    0.00000    0.31473

         MAIN DIRECTIONS OF THE EFG   1.0000  0.4158  0.0000
                                     -0.4158  1.0000  0.0000
                                      0.0000  0.0000  1.0000
:ANG003:  ANGLE WITH OLD X-AXIS =        22.6

:ETA003:                         ASYMM. ETA =     0.17504


       ATOMNUMBER=  4 Br         VCOUL-ZERO =  0.28404E+00
:EFG004:                        EFG         =     0.29757   *10**21  V / m**2
                               V20  TOT/SRF=    -0.12272    -0.02719
                               V22  TOT/SRF=    -0.01519    -0.00449
                               V22M TOT/SRF=    -0.22504    -0.05181
                               V21  TOT/SRF=    -0.02583    -0.00409
                               V21M TOT/SRF=     0.00680     0.00786

              0.05567   -0.22504   -0.02583        0.29757    0.00000    0.00000
             -0.22504    0.08604    0.00680        0.00000   -0.16417    0.00000
             -0.02583    0.00680   -0.14171        0.00000    0.00000   -0.13340

         MAIN DIRECTIONS OF THE EFG  -0.9378  1.0000 -0.4520
                                      1.0000  0.8753 -0.4945
                                      0.0706  0.8848  1.0000
:ANG004:  ANGLE WITH OLD X-AXIS =       130.5

:ETA004:                         ASYMM. ETA =     0.10341


     HELLMANN-FEYNMAN-FORCE IN mRy/a.u. = |F|  Fx       Fy             Fz
:FHF001:   1.ATOM      0.000000000000      0.000000000000      0.000000000000      0.000000000000

     HELLMANN-FEYNMAN-FORCE IN mRy/a.u. = |F|  Fx       Fy             Fz
:FHF002:   2.ATOM     12.436141208771     12.366569548877      1.313607916113      0.000000000000

     HELLMANN-FEYNMAN-FORCE IN mRy/a.u. = |F|  Fx       Fy             Fz
:FHF003:   3.ATOM    205.379423064940    -80.915047513520   -188.768277272354      0.000000000000

     HELLMANN-FEYNMAN-FORCE IN mRy/a.u. = |F|  Fx       Fy             Fz
:FHF004:   4.ATOM    153.297635343280     45.080846738136     94.216917754146    112.209868853512

:FIT001: LUSE= 13 SIGMA OF V-XC FIT FOR ATOM  1  0.7671183E-03
:FIT001: LUSE= 13 SIGMA OF V-XC FIT FOR ATOM  1  0.7671183E-03
:FIT002: LUSE= 13 SIGMA OF V-XC FIT FOR ATOM  2  0.1696021E-04
:FIT002: LUSE= 13 SIGMA OF V-XC FIT FOR ATOM  2  0.1696021E-04
:FIT003: LUSE= 13 SIGMA OF V-XC FIT FOR ATOM  3  0.7168025E-03
:FIT003: LUSE= 13 SIGMA OF V-XC FIT FOR ATOM  3  0.7168025E-03
:FIT004: LUSE= 13 SIGMA OF V-XC FIT FOR ATOM  4  0.6371972E-03
:FIT004: LUSE= 13 SIGMA OF V-XC FIT FOR ATOM  4  0.6371972E-03
:DEN  : DENSITY INTEGRAL  =       -114062.49660858   (Ry)
       ELS_POTENTIAL_AT Z=0 and Z=0.5:  -0.56284  -0.56284
       ELS_POTENTIAL_AT Y=0 and Y=0.5:  -0.47107  -0.47107
:VZERO:v0,v0c,v0x  -1.29708  -0.56284  -0.73424 v5,v5c,v5x  -1.29708  -0.56284  -0.73424
:VZERY:v0,v0c,v0x  -1.12078  -0.47107  -0.64971 v5,v5c,v5x  -1.12078  -0.47107  -0.64971
:VZERX:v0,v0c,v0x  -1.11287  -0.47056  -0.64230 v5,v5c,v5x  -1.11287  -0.47056  -0.64230
:LMAX-WF:   10   Non-Spherical LMAX:   4

          ATOMIC SPHERE DEPENDENT PARAMETERS FOR ATOM  Pb        
:e__0001: OVERALL ENERGY PARAMETER IS    0.1000
          OVERALL BASIS SET ON ATOM IS LAPW
:E2_0001: E( 2)=    0.5000
             APW+lo
:E2_0001: E( 2)=   -0.9432   E(BOTTOM)=   -1.181   E(TOP)=   -0.706  2  3   127
             LOCAL ORBITAL
:E0_0001: E( 0)=    0.1000
             APW+lo
:E1_0001: E( 1)=    0.1000
             APW+lo

          ATOMIC SPHERE DEPENDENT PARAMETERS FOR ATOM  Cs        
:e__0002: OVERALL ENERGY PARAMETER IS    0.1000
          OVERALL BASIS SET ON ATOM IS LAPW
:E2_0002: E( 2)=    0.1000
             APW+lo
:E2_0002: E( 2)=   -4.8558   E(BOTTOM)=   -4.867   E(TOP)=   -4.844  1  2   118
             LOCAL ORBITAL
:E0_0002: E( 0)=    0.5000
             APW+lo
:E0_0002: E( 0)=   -1.3644   E(BOTTOM)=   -2.047   E(TOP)=   -0.682  4  5   172
             LOCAL ORBITAL
:E1_0002: E( 1)=    0.5000
             APW+lo
:E1_0002: E( 1)=   -0.1916   E(BOTTOM)=   -1.164   E(TOP)=    0.781  3  4   198
             LOCAL ORBITAL

          ATOMIC SPHERE DEPENDENT PARAMETERS FOR ATOM  Br        
:e__0003: OVERALL ENERGY PARAMETER IS    0.1000
          OVERALL BASIS SET ON ATOM IS LAPW
:E2_0003: E( 2)=    0.1000
             APW+lo
:E2_0003: E( 2)=   -4.3346   E(BOTTOM)=   -4.338   E(TOP)=   -4.331  1  1   125
             LOCAL ORBITAL
:E0_0003: E( 0)=    0.5000
             APW+lo
:E0_0003: E( 0)=   -0.9413   E(BOTTOM)=   -1.507   E(TOP)=   -0.376  3  4   159
             LOCAL ORBITAL
:E1_0003: E( 1)=    0.1000
             APW+lo

          ATOMIC SPHERE DEPENDENT PARAMETERS FOR ATOM  Br        
:e__0004: OVERALL ENERGY PARAMETER IS    0.1000
          OVERALL BASIS SET ON ATOM IS LAPW
:E2_0004: E( 2)=    0.1000
             APW+lo
:E2_0004: E( 2)=   -4.3347   E(BOTTOM)=   -4.338   E(TOP)=   -4.331  1  1   125
             LOCAL ORBITAL
:E0_0004: E( 0)=    0.5000
             APW+lo
:E0_0004: E( 0)=   -0.9413   E(BOTTOM)=   -1.507   E(TOP)=   -0.376  3  4   161
             LOCAL ORBITAL
:E1_0004: E( 1)=    0.1000
             APW+lo

       K=   0.04545   0.04545   0.07143            1
:RKM  : MATRIX SIZE  5967LOs: 308  RKM=10.00  WEIGHT= 8.00  PGR:    
       EIGENVALUES ARE:
:EIG00001:      -4.8535767   -4.8535765   -4.8535762   -4.8535761   -4.8535685
:EIG00006:      -4.8535683   -4.8535681   -4.8535680   -4.8535651   -4.8535642
:EIG00011:      -4.8535641   -4.8535636   -4.8535424   -4.8535422   -4.8535413
:EIG00016:      -4.8535405   -4.8535391   -4.8535388   -4.8535387   -4.8535386
:EIG00021:      -4.3346063   -4.3346062   -4.3346062   -4.3346061   -4.3346029
:EIG00026:      -4.3346026   -4.3346026   -4.3346025   -4.3346024   -4.3346024
:EIG00031:      -4.3346023   -4.3346023   -4.3343247   -4.3343246   -4.3343244
:EIG00036:      -4.3343244   -4.3342865   -4.3342863   -4.3342863   -4.3342862
:EIG00041:      -4.3342862   -4.3342861   -4.3342860   -4.3342859   -4.3342197
:EIG00046:      -4.3342196   -4.3342190   -4.3342188   -4.3342188   -4.3342186
 
:EIG00051:      -4.3342181   -4.3342178   -4.3340388   -4.3340387   -4.3340387
:EIG00056:      -4.3340385   -4.3336580   -4.3336580   -4.3336580   -4.3336579
:EIG00061:      -4.3336578   -4.3336578   -4.3336577   -4.3336576   -4.3336108
:EIG00066:      -4.3336107   -4.3336106   -4.3336105   -4.3336104   -4.3336103
:EIG00071:      -4.3336101   -4.3336100   -4.3335736   -4.3335735   -4.3335734
:EIG00076:      -4.3335734   -4.3335045   -4.3335044   -4.3335044   -4.3335043
:EIG00081:      -1.3706608   -1.3704998   -1.3703196   -1.3702146   -0.9676844
:EIG00086:      -0.9672969   -0.9672322   -0.9660011   -0.9644352   -0.9610681
:EIG00091:      -0.9432029   -0.9429381   -0.9428433   -0.9424863   -0.9420066
:EIG00096:      -0.9415603   -0.9135836   -0.9131516   -0.9127655   -0.9074956
 
:EIG00101:      -0.9074334   -0.9073320   -0.9072622   -0.9071367   -0.9070627
:EIG00106:      -0.9070256   -0.9069431   -0.9066461   -0.9065752   -0.9064317
:EIG00111:      -0.9063908   -0.9010146   -0.8877945   -0.8752766   -0.8751455
:EIG00116:      -0.8748129   -0.4129436   -0.4108983   -0.4105966   -0.4099796
:EIG00121:      -0.4083881   -0.4079882   -0.4077347   -0.4062554   -0.4062073
:EIG00126:      -0.4059748   -0.4055364   -0.4047298   -0.4038354   -0.3680265
:EIG00131:      -0.3277776   -0.2672353   -0.1455982   -0.1447915   -0.1418430
:EIG00136:      -0.1376417   -0.1357963   -0.1270231   -0.0943085   -0.0766578
:EIG00141:      -0.0736639   -0.0722064   -0.0708391   -0.0636440   -0.0547981
:EIG00146:      -0.0490931   -0.0467978   -0.0442265   -0.0415816   -0.0391604
 
:EIG00151:      -0.0379113   -0.0358420   -0.0353502   -0.0341577   -0.0275740
:EIG00156:      -0.0233554   -0.0229934   -0.0226097   -0.0202634   -0.0187773
:EIG00161:      -0.0175754   -0.0150517   -0.0135555   -0.0132131    0.0042355
:EIG00166:       0.0581487    0.1063505    0.1595506    0.3389184    0.3425790
:EIG00171:       0.3465412    0.3712617    0.3844722    0.4022644    0.4069568
:EIG00176:       0.4861044    0.4918224    0.4989163    0.5039732    0.5315665
:EIG00181:       0.5340449    0.5386909    0.5461490    0.5504435    0.5510893
:EIG00186:       0.5545744    0.5599591    0.5613169    0.5754914    0.5796686
:EIG00191:       0.5808229    0.5879767    0.6010585    0.6045727    0.6085048
:EIG00196:       0.6145216    0.6157854    0.6208877    0.6233169    0.6329977
 
:EIG00201:       0.6385256    0.6428899    0.6513629    0.6595976    0.6617297
:EIG00206:       0.6783882    0.6847864    0.6936904    0.7004902    0.7054143
:EIG00211:       0.7185303    0.7348334    0.7449979    0.7525357    0.7599254
:EIG00216:       0.7625816    0.7650856    0.7703219    0.7798554    0.7896223
:EIG00221:       0.7907046    0.7948288    0.7978516    0.8355525    0.8540810
:EIG00226:       0.8593161    0.8620640    0.8667921    0.8680067    0.8710202
:EIG00231:       0.8749761    0.8843369    0.8985157    0.9006454    0.9110429
:EIG00236:       0.9275379    0.9389898    0.9459762    0.9538813    0.9585590
:EIG00241:       0.9608362    0.9698793    0.9805033    0.9865154    0.9980814
:EIG00246:       1.0001237    1.0101402    1.0136802    1.0145895    1.0171786
 
:EIG00251:       1.0264807    1.0291542    1.0412485    1.0587420    1.0649319
:EIG00256:       1.0715733    1.0743685    1.0821672    1.0840079    1.0873052
:EIG00261:       1.0892267    1.0931299    1.0953144    1.0999360    1.1059393
:EIG00266:       1.1089717    1.1150817    1.1193926    1.1227007    1.1278675
:EIG00271:       1.1320241    1.1358589    1.1405081    1.1440040    1.1531141
:EIG00276:       1.1574199    1.1607332    1.1631589    1.1667363    1.1716500
:EIG00281:       1.1745937    1.1772131    1.1799009    1.1823909    1.1865219
:EIG00286:       1.1911247    1.1975053    1.1998976    1.2026862    1.2074920
:EIG00291:       1.2158192    1.2173778    1.2216577    1.2261083    1.2290810
:EIG00296:       1.2312552    1.2366191    1.2432434    1.2458784    1.2561768
 
:EIG00301:       1.2644191    1.2662202    1.2701806    1.2736302    1.2762330
:EIG00306:       1.2835007    1.2881710    1.2980946    1.3034271    1.3088047
:EIG00311:       1.3120384    1.3176306    1.3209705    1.3334882    1.3366668
:EIG00316:       1.3405346    1.3526841    1.3571172    1.3620982    1.3687561
:EIG00321:       1.3725968    1.3791233    1.3824344    1.3831622    1.3863552
:EIG00326:       1.3912688    1.3973351    1.4067125    1.4091072    1.4189275
:EIG00331:       1.4293210    1.4347139    1.4374807    1.4440842    1.4501796
:EIG00336:       1.4529803    1.4535180    1.4550697    1.4602602    1.4649185
:EIG00341:       1.4669396    1.4679402    1.4736485    1.4793195    1.4837221
:EIG00346:       1.4874552    1.4961249    1.5041948    1.5061316    1.5096684
 
:EIG00351:       1.5130847    1.5200312    1.5236270    1.5314308    1.5464621
:EIG00356:       1.5481611    1.5609569    1.5614068    1.5724834    1.5771481
:EIG00361:       1.5821908    1.5872580    1.5964129    1.5967965    1.6123343
:EIG00366:       1.6132831    1.6168249    1.6257733    1.6301135    1.6431950
:EIG00371:       1.6453958    1.6488033    1.6546824    1.6583613    1.6652699
:EIG00376:       1.6671581    1.6690379    1.6793403    1.6844555    1.6950134
:EIG00381:       1.6974688    1.7080769    1.7093816    1.7123313    1.7213613
:EIG00386:       1.7228111    1.7255268    1.7339614    1.7376118    1.7414369
:EIG00391:       1.7426000    1.7478801    1.7496165    1.7526782    1.7597393
:EIG00396:       1.7657328    1.7728816    1.7764614    1.7831592    1.7927286
 
:EIG00401:       1.7950636    1.7982301
       ********************************************************

:KPT   :      NUMBER OF K-POINTS:   144
       Insulator, EF-inconsistency corrected
:GAP (global)   :  0.179368 Ry =     2.440 eV (accurate value if proper k-mesh)
         Bandranges (emin - emax) and occupancy:
:BAN00158: 158   -0.031730   -0.020396  2.00000000
:BAN00159: 159   -0.028815   -0.020099  2.00000000
:BAN00160: 160   -0.028815   -0.018777  2.00000000
:BAN00161: 161   -0.024781   -0.016736  2.00000000
:BAN00162: 162   -0.023826   -0.014639  2.00000000
:BAN00163: 163   -0.018673   -0.009027  2.00000000
:BAN00164: 164   -0.018673   -0.009027  2.00000000
:BAN00165: 165    0.004236    0.068977  2.00000000
:BAN00166: 166    0.013953    0.070755  2.00000000
:BAN00167: 167    0.042522    0.121785  2.00000000
:BAN00168: 168    0.042522    0.159551  2.00000000
:BAN00169: 169    0.338918    0.442018  0.00000000
:BAN00170: 170    0.342579    0.442018  0.00000000
:BAN00171: 171    0.346541    0.448123  0.00000000
:BAN00172: 172    0.364316    0.448123  0.00000000
:BAN00173: 173    0.380700    0.465616  0.00000000
        Energy to separate low and high energystates:   -0.46294


:NOE  : NUMBER OF ELECTRONS          =  336.000

:FER  : F E R M I - ENERGY(TETRAH.M.)=   0.1595505551
:GMA  : POTENTIAL AND CHARGE CUT-OFF  12.00 Ry**.5

:POS001: ATOM   -1 X,Y,Z = 0.50000 0.50000 0.50000  MULT= 4  ZZ= 82.000  Pb        

       LMMAX 28
       LM=   0 0  2 0  2 1 -2 1  2 2 -2 2  4 0  4 1 -4 1  4 2 -4 2  4 3 -4 3  4 4 -4 4  6 0  6 1
        -6 1  6 2 -6 2  6 3 -6 3  6 4 -6 4  6 5 -6 5  6 6 -6 6

:CHA001: TOTAL VALENCE CHARGE INSIDE SPHERE   1 =  11.3391    (RMT=  2.5000 )
:PCS001: PARTIAL CHARGES SPHERE =  1 S,P,D,F,PX,PY,PZ,D-Z2,D-X2Y2,D-XY,D-XZ,D-YZ 
:QTL001: 1.3319 0.2689 9.7230 0.0128 0.0888 0.0895 0.0907 1.9521 1.9407 1.9509 1.9400 1.9393
        Q-s-low E-s-low   Q-p-low E-p-low   Q-d-low E-d-low   Q-f-low E-f-low
:EPL001:  0.0183 -0.9493    0.0089 -0.9409    9.6489 -0.9086    0.0011 -0.9470
        Q-s-hi  E-s-hi    Q-p-hi  E-p-hi    Q-d-hi  E-d-hi    Q-f-hi  E-f-hi 
:EPH001:  1.3135 -0.2212    0.2601 -0.0880    0.0741 -0.0527    0.0117 -0.0545

                      QXX         QXY         QYY         QZZ       UP TO R
:VZZ001:             0.65389     0.66475     0.14455    -0.79844       2.500

:POS002: ATOM   -2 X,Y,Z = 0.48491 0.94655 0.25000  MULT= 4  ZZ= 55.000  Cs        

       LMMAX 28
       LM=   0 0  1 1 -1 1  2 0  2 2 -2 2  3 1 -3 1  3 3 -3 3  4 0  4 2 -4 2  4 4 -4 4  5 1 -5 1
         5 3 -5 3  5 5 -5 5  6 0  6 2 -6 2  6 4 -6 4  6 6 -6 6

:CHA002: TOTAL VALENCE CHARGE INSIDE SPHERE   2 =  16.3030    (RMT=  2.5000 )
:PCS002: PARTIAL CHARGES SPHERE =  2 S,P,D,F,PX,PY,PZ,D-Z2,D-X2Y2,D-XY,D-XZ,D-YZ 
:QTL002: 1.7963 4.494210.0104 0.0019 1.4973 1.4982 1.4987 2.0016 2.0025 2.0013 2.0021 2.0028
        Q-s-low E-s-low   Q-p-low E-p-low   Q-d-low E-d-low   Q-f-low E-f-low
:EPL002:  1.7868 -1.3700    0.0022 -0.9402    9.9955 -4.8535    0.0000 10.0000
        Q-s-hi  E-s-hi    Q-p-hi  E-p-hi    Q-d-hi  E-d-hi    Q-f-hi  E-f-hi 
:EPH002:  0.0095 -0.0725    4.4920 -0.3952    0.0149 -0.0473    0.0019 -0.0395

                      QXX         QXY         QYY         QZZ       UP TO R
:VZZ002:             0.55816     1.61867    -0.12029    -0.43788       2.500

:POS003: ATOM   -3 X,Y,Z = 0.56000 0.50750 0.25000  MULT= 4  ZZ= 35.000  Br        

       LMMAX 28
       LM=   0 0  1 1 -1 1  2 0  2 2 -2 2  3 1 -3 1  3 3 -3 3  4 0  4 2 -4 2  4 4 -4 4  5 1 -5 1
         5 3 -5 3  5 5 -5 5  6 0  6 2 -6 2  6 4 -6 4  6 6 -6 6

:CHA003: TOTAL VALENCE CHARGE INSIDE SPHERE   3 =  15.9485    (RMT=  2.5000 )
:PCS003: PARTIAL CHARGES SPHERE =  3 S,P,D,F,PX,PY,PZ,D-Z2,D-X2Y2,D-XY,D-XZ,D-YZ 
:QTL003: 1.7964 4.134710.0143 0.0025 1.3975 1.4015 1.3357 2.0109 2.0004 2.0002 2.0017 2.0010
        Q-s-low E-s-low   Q-p-low E-p-low   Q-d-low E-d-low   Q-f-low E-f-low
:EPL003:  1.7651 -0.9424    0.0060 -0.9114   10.0003 -4.3334    0.0006 -0.9156
        Q-s-hi  E-s-hi    Q-p-hi  E-p-hi    Q-d-hi  E-d-hi    Q-f-hi  E-f-hi 
:EPH003:  0.0314 -0.2405    4.1286 -0.0547    0.0140 -0.1103    0.0018 -0.1630

                      QXX         QXY         QYY         QZZ       UP TO R
:VZZ003:            -5.38540    -0.35320    -6.62606    12.01146       2.500

:POS004: ATOM   -4 X,Y,Z = 0.19962 0.70227 0.46752  MULT= 8  ZZ= 35.000  Br        

       LMMAX 49

:CHA004: TOTAL VALENCE CHARGE INSIDE SPHERE   4 =  15.9491    (RMT=  2.5000 )
:PCS004: PARTIAL CHARGES SPHERE =  4 S,P,D,F,PX,PY,PZ,D-Z2,D-X2Y2,D-XY,D-XZ,D-YZ 
:QTL004: 1.7962 4.136010.0139 0.0024 1.3703 1.3671 1.3985 2.0027 2.0019 2.0073 2.0009 2.0010
        Q-s-low E-s-low   Q-p-low E-p-low   Q-d-low E-d-low   Q-f-low E-f-low
:EPL004:  1.7656 -0.9423    0.0058 -0.9105   10.0002 -4.3335    0.0006 -0.9165
        Q-s-hi  E-s-hi    Q-p-hi  E-p-hi    Q-d-hi  E-d-hi    Q-f-hi  E-f-hi 
:EPH004:  0.0307 -0.2410    4.1301 -0.0547    0.0136 -0.1126    0.0018 -0.1571

                      QXX         QXY         QYY         QZZ       UP TO R
:VZZ004:             2.28042    -8.57539     3.25707    -5.53749       2.500

:CHA  : TOTAL VALENCE CHARGE INSIDE UNIT CELL =     336.000000

:SUM  : SUM OF EIGENVALUES =        -800.005093763


        1.ATOM      Pb                   19 CORE STATES
:1S 001: 1S               -6465.866829178 Ry
:2S 001: 2S               -1154.913169266 Ry
:2PP001: 2P*              -1108.903784485 Ry
:2P 001: 2P                -947.945063580 Ry
:3S 001: 3S                -276.702611431 Ry
:3PP001: 3P*               -255.977307389 Ry
:3P 001: 3P                -220.063508326 Ry
:3DD001: 3D*               -186.071858439 Ry
:3D 001: 3D                -178.431544713 Ry
:4S 001: 4S                 -62.137406941 Ry
:4PP001: 4P*                -53.172594235 Ry
:4P 001: 4P                 -44.381915174 Ry
:4DD001: 4D*                -29.801103658 Ry
:4D 001: 4D                 -28.160912257 Ry
:5S 001: 5S                  -9.912369211 Ry
:5PP001: 5P*                 -6.857201628 Ry
:5P 001: 5P                  -5.215757605 Ry
:4FF001: 4F*                 -9.288490558 Ry
:4F 001: 4F                  -8.918759252 Ry

        2.ATOM      Cs                   12 CORE STATES
       CORE-FORCE in mRy/a.u. = |F|      Fx             Fy             Fz
:FCO002:   2.ATOM      8.348447871998     -8.292464779872     -0.965199329699      0.000000000000

:1S 002: 1S               -2628.589809196 Ry
:2S 002: 2S                -411.662907399 Ry
:2PP002: 2P*               -387.225725975 Ry
:2P 002: 2P                -361.333945088 Ry
:3S 002: 3S                 -85.112642426 Ry
:3PP002: 3P*                -74.909243431 Ry
:3P 002: 3P                 -69.947369966 Ry
:3DD002: 3D*                -52.028111537 Ry
:3D 002: 3D                 -50.974779742 Ry
:4S 002: 4S                 -15.578158410 Ry
:4PP002: 4P*                -11.917303016 Ry
:4P 002: 4P                 -10.905355331 Ry

        3.ATOM      Br                    7 CORE STATES
       CORE-FORCE in mRy/a.u. = |F|      Fx             Fy             Fz
:FCO003:   3.ATOM    106.103585165718     40.370154515952     98.123500800659      0.000000000000

:1S 003: 1S                -977.951596006 Ry
:2S 003: 2S                -126.748966347 Ry
:2PP003: 2P*               -114.079009142 Ry
:2P 003: 2P                -110.587627833 Ry
:3S 003: 3S                 -16.923124296 Ry
:3PP003: 3P*                -12.518585713 Ry
:3P 003: 3P                 -12.016386142 Ry

        4.ATOM      Br                    7 CORE STATES
       CORE-FORCE in mRy/a.u. = |F|      Fx             Fy             Fz
:FCO004:   4.ATOM     77.630821852544    -22.023511738988    -47.713203784109    -57.139825138340

:1S 004: 1S                -977.951660311 Ry
:2S 004: 2S                -126.749032101 Ry
:2PP004: 2P*               -114.079074680 Ry
:2P 004: 2P                -110.587693402 Ry
:3S 004: 3S                 -16.923190786 Ry
:3PP004: 3P*                -12.518652096 Ry
:3P 004: 3P                 -12.016452492 Ry
:CINT001 Core Integral Atom   1   67.995052
:CINT002 Core Integral Atom   2   35.999909
:CINT003 Core Integral Atom   3   17.999989
:CINT004 Core Integral Atom   4   17.999989

       DENSITY AT NUCLEUS
        JATOM        VALENCE       SEMI-CORE          CORE           TOTAL
:RTO001:   1     1948.252582        0.000000  9911353.076514  9913301.329096
:RTO002:   2      320.965032        0.000000   438170.995935   438491.960968
:RTO003:   3       73.567571        0.000000    45839.118265    45912.685836
:RTO004:   4       73.551345        0.000000    45839.118253    45912.669598
     
       CHARGES OF NEW CHARGE DENSITY
:NTO   : INTERSTITIAL CHARGE =    34.045128
:NPC   : PW Pseudocharge     =   131.053948
:NTO001: CHARGE SPHERE  1    =    79.334120
:NTO002: CHARGE SPHERE  2    =    52.302912
:NTO003: CHARGE SPHERE  3    =    33.948485
:NTO004: CHARGE SPHERE  4    =    33.949063

:NEC01: NUCLEAR AND ELECTRONIC CHARGE    968.00000   967.97970
     
       CHARGES OF OLD CHARGE DENSITY
:OTO   : INTERSTITIAL CHARGE =    36.550645
:OPC   : PW Pseudocharge     =   130.590198
:OTO001: CHARGE SPHERE  1    =    79.797429
:OTO002: CHARGE SPHERE  2    =    52.317566
:OTO003: CHARGE SPHERE  3    =    33.582843
:OTO004: CHARGE SPHERE  4    =    33.582250

:NEC02: NUCLEAR AND ELECTRONIC CHARGE    968.00000   968.00000
     
       CONVERGENCE TEST
:DTO001: DIFFERENCE IN SPHERE  1 =  0.2422639
:DTO002: DIFFERENCE IN SPHERE  2 =  0.0710021
:DTO003: DIFFERENCE IN SPHERE  3 =  0.1844096
:DTO004: DIFFERENCE IN SPHERE  4 =  0.1850202

:DIS  :  CHARGE DISTANCE       ( 0.2422639 for atom    1 spin 1)      0.1735432
 PW Mixed is         6293
 
******************************************************
* MULTISECANT MIXING VER9 RELEASE 10.4.0              *
* Slow Mode, cautious                                *
* Fixed density scale                                *
* Regularization       1.000E-04                     *
* Step Trust Radius    0.75000                       *
* Trust Upper Limit    2.000E+00                     *
* Max Number of Memory Steps   12                    *
******************************************************
 
:PWTMP   3.9481E+03  2.5000E+03  5.2571E+03
:PLANE:  PW TOTAL     10.8312 DISTAN   6.45E-01  5.96E+00 %
:CHARG:  CLM/ATOM   1115.9674 DISTAN   2.06E-01  1.85E-02 %
 
Step History
        DMIX         DMIXT        Red     Pred      Trust     Lambda    MagRel    MagAbs     Beta
  1   3.5000E-02   3.5000E-02 -1.00E+00  1.00E+00 -1.00E+01  1.00E+00  3.50E-02  3.50E-02  1.00E+00
  2   2.5000E-02   2.5000E-02 -1.00E+00  1.00E+00 -1.00E+01  1.00E+00  2.50E-02  6.65E-02  1.00E+00
:JACOBIANS    5.157E-01   1.253E-04
  
:TRUST:  Step 3.62E-02  Charge 7.50E-02 (e) CTO  4.43E-01 (e) PW  6.21E-01 (e)
:DIRM :  MEMORY  1/12 SCALE   1.000
:MIX  :   PRATT  REGULARIZATION:  1.00E-04 GREED: 0.03619  Expand 1.45  0.0362                
     
       CHARGES OF MIXED CHARGE DENSITY
:CTO   : INTERSTITIAL CHARGE =    36.536090
:CPC   : PW Pseudocharge     =   130.410340
:CTO001: CHARGE SPHERE  1    =    79.794761
:CTO002: CHARGE SPHERE  2    =    52.317475
:CTO003: CHARGE SPHERE  3    =    33.584971
:CTO004: CHARGE SPHERE  4    =    33.584385

:NEC03: NUCLEAR AND ELECTRONIC CHARGE    968.00000   968.00000

PW CHANGE     H    K    L      Current       Change    Residue
:PTO001:      0    0    0  3.17565361E-02 -3.698E-05 -3.697E-04
:PTO006:     -1    0   -1 -2.86471799E-03 -1.410E-05 -8.460E-05
:PTO007:      0    0   -2  3.03268469E-03 -4.375E-04 -1.029E-03
:PTO008:     -1   -1    0  5.75055576E-03 -8.931E-04 -2.131E-03
:PTO009:     -1   -1   -1 -1.26662598E-02 -2.198E-05 -1.471E-04
:PTO012:      0   -2    0  8.27540998E-03 -5.002E-04 -1.102E-03
:PTO013:     -1   -1   -2  2.53622191E-02 -2.162E-03 -5.104E-03
:PTO014:     -2    0    0  8.21377032E-03 -5.120E-04 -1.119E-03
:PTO015:      0   -2   -1  7.10986253E-03 -2.104E-05 -1.727E-04
:PTO018:     -1   -2    0 -1.34401618E-02 -2.142E-04 -8.021E-04
:PTO019:     -2   -1    0  1.48267696E-02  2.375E-04  8.699E-04
:PTO021:     -1   -2   -1  1.56067795E-02  2.679E-04  8.994E-04

:ENE  : ********** TOTAL ENERGY IN Ry =      -292313.36868491

       TOTAL FORCE IN mRy/a.u. = |F|     Fx             Fy             Fz     with/without FOR in case.in2
:FOR001:   1.ATOM          0.000          0.000          0.000          0.000 partial forces
:FOR002:   2.ATOM          4.089          4.074          0.348          0.000 partial forces
:FOR003:   3.ATOM         99.299        -40.545        -90.645          0.000 partial forces
:FOR004:   4.ATOM         75.677         23.057         46.504         55.070 partial forces
       TOTAL FORCE WITH RESPECT TO GLOBAL CARTESIAN COORDINATES:
:FCA001:   1.ATOM                         0.000          0.000          0.000 partial forces
:FCA002:   2.ATOM                         4.074          0.348          0.000 partial forces
:FCA003:   3.ATOM                       -40.545        -90.645          0.000 partial forces
:FCA004:   4.ATOM                        23.057         46.504         55.070 partial forces
       TOTAL FORCE WITH RESPECT TO THE GLOBAL COORDINATE SYSTEM:
:FGL001:   1.ATOM                 0.000000000     0.000000000     0.000000000 partial forces
:FGL002:   2.ATOM                 4.074104769     0.348408586     0.000000000 partial forces
:FGL003:   3.ATOM               -40.544892998   -90.644776472     0.000000000 partial forces
:FGL004:   4.ATOM                23.057334999    46.503713970    55.070043715 partial forces
 Flat Integration
 New Mode for Coulomb Integral
 Consistent 3/8+Simpson combinations
 Extension of core to zero
 LDM version in phi
 Fifth-order quadrature in outwin


            ---------
:ITE003:  3. ITERATION
            ---------

:NATO :    4 INDEPENDENT AND   20 TOTAL ATOMS IN UNITCELL
       SUBSTANCE: blebleble                                                   

       LATTICE                      = P   
:POT  : POTENTIAL OPTION EX_PBE EC_PBE VX_PBE VC_PBE
:LAT  : LATTICE CONSTANTS= 15.19415 15.66734 22.08372    1.571    1.571    1.571
:VOL  : UNIT CELL VOLUME =    5257.07306
       MODE OF CALCULATION IS       = RELA
       NON-SPINPOLARIZED CALCULATION
:IFFT  : FFT-parameters:  120  120  180 Factor: 2.00


   CONVERGENCE PARAMETER FOR PSEUDOCHARGE: NCON=  9
   MAXIMAL VALUE OF RMT(JATOM)*ABSK(NKK) : RK  =29.99804


:VKCOUL :  VK-COUL convergence: 0.254E-08
       ATOMNUMBER=  1 Pb         VCOUL-ZERO =  0.10483E+00
:EFG001:                        EFG         =     0.03466   *10**21  V / m**2
                               V20  TOT/SRF=    -0.02029     0.00188
                               V22  TOT/SRF=     0.00728    -0.00071
                               V22M TOT/SRF=     0.01960    -0.00083
                               V21  TOT/SRF=    -0.00865     0.00315
                               V21M TOT/SRF=    -0.00660    -0.00509

              0.01899    0.01960   -0.00865        0.03466    0.00000    0.00000
              0.01960    0.00443   -0.00660        0.00000   -0.00918    0.00000
             -0.00865   -0.00660   -0.02343        0.00000    0.00000   -0.02547

         MAIN DIRECTIONS OF THE EFG   1.0000 -0.7064  0.1366
                                      0.6985  1.0000  0.1313
                                     -0.2283 -0.0348  1.0000
:ANG001:  ANGLE WITH OLD X-AXIS =        35.7

:ETA001:                         ASYMM. ETA =     0.47010


       ATOMNUMBER=  2 Cs         VCOUL-ZERO = -0.47208E-01
:EFG002:                        EFG         =     0.05618   *10**21  V / m**2
                               V20  TOT/SRF=    -0.01176    -0.00046
                               V22  TOT/SRF=     0.00992    -0.00050
                               V22M TOT/SRF=     0.04838    -0.00102
                               V21  TOT/SRF=     0.00000     0.00000
                               V21M TOT/SRF=     0.00000     0.00000

              0.01670    0.04838    0.00000        0.05618    0.00000    0.00000
              0.04838   -0.00313    0.00000        0.00000   -0.04260    0.00000
              0.00000    0.00000   -0.01358        0.00000    0.00000   -0.01358

         MAIN DIRECTIONS OF THE EFG   1.0000 -0.8159  0.0000
                                      0.8159  1.0000  0.0000
                                      0.0000  0.0000  1.0000
:ANG002:  ANGLE WITH OLD X-AXIS =        39.2

:ETA002:                         ASYMM. ETA =     0.51668


       ATOMNUMBER=  3 Br         VCOUL-ZERO =  0.28483E+00
:EFG003:                        EFG         =     0.37901   *10**21  V / m**2
                               V20  TOT/SRF=     0.32824     0.06371
                               V22  TOT/SRF=     0.02279     0.00571
                               V22M TOT/SRF=    -0.02153    -0.01135
                               V21  TOT/SRF=     0.00000     0.00000
                               V21M TOT/SRF=     0.00000     0.00000

             -0.16671   -0.02153    0.00000       -0.15815    0.00000    0.00000
             -0.02153   -0.21230    0.00000        0.00000   -0.22086    0.00000
              0.00000    0.00000    0.37901        0.00000    0.00000    0.37901

         MAIN DIRECTIONS OF THE EFG   1.0000  0.3977  0.0000
                                     -0.3977  1.0000  0.0000
                                      0.0000  0.0000  1.0000
:ANG003:  ANGLE WITH OLD X-AXIS =        21.7

:ETA003:                         ASYMM. ETA =     0.16546


       ATOMNUMBER=  4 Br         VCOUL-ZERO =  0.28488E+00
:EFG004:                        EFG         =     0.35842   *10**21  V / m**2
                               V20  TOT/SRF=    -0.14832    -0.02755
                               V22  TOT/SRF=    -0.01782    -0.00450
                               V22M TOT/SRF=    -0.27093    -0.05243
                               V21  TOT/SRF=    -0.03050    -0.00406
                               V21M TOT/SRF=     0.00695     0.00787

              0.06781   -0.27093   -0.03050        0.35842    0.00000    0.00000
             -0.27093    0.10346    0.00695        0.00000   -0.19793    0.00000
             -0.03050    0.00695   -0.17127        0.00000    0.00000   -0.16049

         MAIN DIRECTIONS OF THE EFG  -0.9393  1.0000 -0.4691
                                      1.0000  0.8778 -0.5079
                                      0.0672  0.9150  1.0000
:ANG004:  ANGLE WITH OLD X-AXIS =       130.4

:ETA004:                         ASYMM. ETA =     0.10446


     HELLMANN-FEYNMAN-FORCE IN mRy/a.u. = |F|  Fx       Fy             Fz
:FHF001:   1.ATOM      0.000000000000      0.000000000000      0.000000000000      0.000000000000

     HELLMANN-FEYNMAN-FORCE IN mRy/a.u. = |F|  Fx       Fy             Fz
:FHF002:   2.ATOM     12.275851413268     12.180720139245      1.525314659349      0.000000000000

     HELLMANN-FEYNMAN-FORCE IN mRy/a.u. = |F|  Fx       Fy             Fz
:FHF003:   3.ATOM    202.160528529797    -78.235644384912   -186.408323964153      0.000000000000

     HELLMANN-FEYNMAN-FORCE IN mRy/a.u. = |F|  Fx       Fy             Fz
:FHF004:   4.ATOM    148.697753874552     42.757588038330     91.390063016795    109.227592916202

:FIT001: LUSE= 13 SIGMA OF V-XC FIT FOR ATOM  1  0.7693083E-03
:FIT001: LUSE= 13 SIGMA OF V-XC FIT FOR ATOM  1  0.7693083E-03
:FIT002: LUSE= 13 SIGMA OF V-XC FIT FOR ATOM  2  0.1707260E-04
:FIT002: LUSE= 13 SIGMA OF V-XC FIT FOR ATOM  2  0.1707260E-04
:FIT003: LUSE= 13 SIGMA OF V-XC FIT FOR ATOM  3  0.7107081E-03
:FIT003: LUSE= 13 SIGMA OF V-XC FIT FOR ATOM  3  0.7107081E-03
:FIT004: LUSE= 13 SIGMA OF V-XC FIT FOR ATOM  4  0.6317343E-03
:FIT004: LUSE= 13 SIGMA OF V-XC FIT FOR ATOM  4  0.6317343E-03
:DEN  : DENSITY INTEGRAL  =       -114062.65345516   (Ry)
       ELS_POTENTIAL_AT Z=0 and Z=0.5:  -0.56004  -0.56004
       ELS_POTENTIAL_AT Y=0 and Y=0.5:  -0.46924  -0.46924
:VZERO:v0,v0c,v0x  -1.28595  -0.56004  -0.72590 v5,v5c,v5x  -1.28595  -0.56004  -0.72590
:VZERY:v0,v0c,v0x  -1.11273  -0.46924  -0.64348 v5,v5c,v5x  -1.11273  -0.46924  -0.64348
:VZERX:v0,v0c,v0x  -1.10434  -0.46819  -0.63615 v5,v5c,v5x  -1.10434  -0.46819  -0.63615
:LMAX-WF:   10   Non-Spherical LMAX:   4

          ATOMIC SPHERE DEPENDENT PARAMETERS FOR ATOM  Pb        
:e__0001: OVERALL ENERGY PARAMETER IS    0.0064
          OVERALL BASIS SET ON ATOM IS LAPW
:E2_0001: E( 2)=    0.4064
             APW+lo
:E2_0001: E( 2)=   -0.9446   E(BOTTOM)=   -1.182   E(TOP)=   -0.707  2  3   123
             LOCAL ORBITAL
:E0_0001: E( 0)=    0.0064
             APW+lo
:E1_0001: E( 1)=    0.0064
             APW+lo

          ATOMIC SPHERE DEPENDENT PARAMETERS FOR ATOM  Cs        
:e__0002: OVERALL ENERGY PARAMETER IS    0.0064
          OVERALL BASIS SET ON ATOM IS LAPW
:E2_0002: E( 2)=    0.0064
             APW+lo
:E2_0002: E( 2)=   -4.8554   E(BOTTOM)=   -4.867   E(TOP)=   -4.844  1  2   122
             LOCAL ORBITAL
:E0_0002: E( 0)=    0.4064
             APW+lo
:E0_0002: E( 0)=   -1.3640   E(BOTTOM)=   -2.047   E(TOP)=   -0.681  4  5   174
             LOCAL ORBITAL
:E1_0002: E( 1)=    0.4064
             APW+lo
:E1_0002: E( 1)=   -0.1912   E(BOTTOM)=   -1.163   E(TOP)=    0.781  3  4   204
             LOCAL ORBITAL

          ATOMIC SPHERE DEPENDENT PARAMETERS FOR ATOM  Br        
:e__0003: OVERALL ENERGY PARAMETER IS    0.0064
          OVERALL BASIS SET ON ATOM IS LAPW
:E2_0003: E( 2)=    0.0064
             APW+lo
:E2_0003: E( 2)=   -4.3329   E(BOTTOM)=   -4.336   E(TOP)=   -4.330  0  1   119
             LOCAL ORBITAL
:E0_0003: E( 0)=    0.4064
             APW+lo
:E0_0003: E( 0)=   -0.9400   E(BOTTOM)=   -1.506   E(TOP)=   -0.374  3  4   161
             LOCAL ORBITAL
:E1_0003: E( 1)=    0.0064
             APW+lo

          ATOMIC SPHERE DEPENDENT PARAMETERS FOR ATOM  Br        
:e__0004: OVERALL ENERGY PARAMETER IS    0.0064
          OVERALL BASIS SET ON ATOM IS LAPW
:E2_0004: E( 2)=    0.0064
             APW+lo
:E2_0004: E( 2)=   -4.3329   E(BOTTOM)=   -4.336   E(TOP)=   -4.330  0  1   118
             LOCAL ORBITAL
:E0_0004: E( 0)=    0.4064
             APW+lo
:E0_0004: E( 0)=   -0.9400   E(BOTTOM)=   -1.506   E(TOP)=   -0.374  3  4   155
             LOCAL ORBITAL
:E1_0004: E( 1)=    0.0064
             APW+lo

       K=   0.04545   0.04545   0.07143            1
:RKM  : MATRIX SIZE  5967LOs: 308  RKM=10.00  WEIGHT= 8.00  PGR:    
       EIGENVALUES ARE:
:EIG00001:      -4.8532574   -4.8532573   -4.8532570   -4.8532568   -4.8532506
:EIG00006:      -4.8532505   -4.8532502   -4.8532501   -4.8532435   -4.8532426
:EIG00011:      -4.8532424   -4.8532419   -4.8532231   -4.8532229   -4.8532219
:EIG00016:      -4.8532218   -4.8532216   -4.8532215   -4.8532213   -4.8532211
:EIG00021:      -4.3329064   -4.3329063   -4.3329063   -4.3329062   -4.3328803
:EIG00026:      -4.3328801   -4.3328801   -4.3328800   -4.3328799   -4.3328799
:EIG00031:      -4.3328798   -4.3328797   -4.3326150   -4.3326149   -4.3326147
:EIG00036:      -4.3326147   -4.3325533   -4.3325532   -4.3325531   -4.3325531
:EIG00041:      -4.3325530   -4.3325529   -4.3325528   -4.3325528   -4.3324864
:EIG00046:      -4.3324862   -4.3324857   -4.3324855   -4.3324854   -4.3324853
 
:EIG00051:      -4.3324848   -4.3324844   -4.3323297   -4.3323296   -4.3323296
:EIG00056:      -4.3323294   -4.3318965   -4.3318965   -4.3318965   -4.3318964
:EIG00061:      -4.3318963   -4.3318963   -4.3318962   -4.3318961   -4.3318492
:EIG00066:      -4.3318491   -4.3318490   -4.3318489   -4.3318488   -4.3318487
:EIG00071:      -4.3318485   -4.3318484   -4.3318327   -4.3318326   -4.3318325
:EIG00076:      -4.3318325   -4.3317648   -4.3317647   -4.3317646   -4.3317646
:EIG00081:      -1.3702460   -1.3700857   -1.3699058   -1.3698009   -0.9674238
:EIG00086:      -0.9670230   -0.9669600   -0.9655710   -0.9637094   -0.9598999
:EIG00091:      -0.9420008   -0.9417189   -0.9416887   -0.9412704   -0.9407561
:EIG00096:      -0.9403040   -0.9149552   -0.9144957   -0.9140662   -0.9089276
 
:EIG00101:      -0.9088656   -0.9087646   -0.9086948   -0.9085692   -0.9084956
:EIG00106:      -0.9084583   -0.9083763   -0.9080818   -0.9080113   -0.9078677
:EIG00111:      -0.9078272   -0.9019241   -0.8884114   -0.8756823   -0.8755480
:EIG00116:      -0.8752173   -0.4124835   -0.4111863   -0.4101363   -0.4095580
:EIG00121:      -0.4079608   -0.4075354   -0.4072918   -0.4058176   -0.4057622
:EIG00126:      -0.4055111   -0.4051028   -0.4043058   -0.4033754   -0.3684373
:EIG00131:      -0.3282613   -0.2679177   -0.1448962   -0.1441058   -0.1411677
:EIG00136:      -0.1369447   -0.1350963   -0.1263667   -0.0932328   -0.0756011
:EIG00141:      -0.0725900   -0.0711364   -0.0697732   -0.0625754   -0.0537250
:EIG00146:      -0.0479536   -0.0456705   -0.0430843   -0.0404662   -0.0380346
 
:EIG00151:      -0.0367755   -0.0346840   -0.0342227   -0.0330529   -0.0264786
:EIG00156:      -0.0223677   -0.0220334   -0.0216429   -0.0191397   -0.0176465
:EIG00161:      -0.0164402   -0.0138621   -0.0123905   -0.0120147    0.0053273
:EIG00166:       0.0587045    0.1067933    0.1598905    0.3387831    0.3424298
:EIG00171:       0.3464368    0.3711068    0.3843068    0.4021247    0.4076345
:EIG00176:       0.4868204    0.4925525    0.4995505    0.5046639    0.5318632
:EIG00181:       0.5346123    0.5392796    0.5465638    0.5509531    0.5515212
:EIG00186:       0.5551775    0.5605700    0.5619583    0.5758943    0.5801470
:EIG00191:       0.5815239    0.5886970    0.6014635    0.6048226    0.6090228
:EIG00196:       0.6148278    0.6162050    0.6213127    0.6239072    0.6336901
 
:EIG00201:       0.6390955    0.6433803    0.6519492    0.6601846    0.6623376
:EIG00206:       0.6790566    0.6854412    0.6944229    0.7010310    0.7061631
:EIG00211:       0.7192157    0.7354944    0.7456661    0.7533237    0.7606916
:EIG00216:       0.7632856    0.7658893    0.7710877    0.7806123    0.7904173
:EIG00221:       0.7915247    0.7956540    0.7986271    0.8362339    0.8548922
:EIG00226:       0.8601183    0.8627602    0.8675485    0.8687917    0.8718126
:EIG00231:       0.8757069    0.8851631    0.8992285    0.9013984    0.9119394
:EIG00236:       0.9283673    0.9397866    0.9468605    0.9548618    0.9594685
:EIG00241:       0.9617695    0.9707680    0.9816015    0.9873013    0.9989560
:EIG00246:       1.0009315    1.0109753    1.0149163    1.0156225    1.0184451
 
:EIG00251:       1.0274296    1.0300367    1.0423627    1.0598188    1.0661843
:EIG00256:       1.0729132    1.0759989    1.0839977    1.0857807    1.0889005
:EIG00261:       1.0911761    1.0952196    1.0972454    1.1017559    1.1074219
:EIG00266:       1.1108391    1.1168411    1.1214931    1.1244394    1.1297058
:EIG00271:       1.1336006    1.1378798    1.1426534    1.1459902    1.1549757
:EIG00276:       1.1593067    1.1627741    1.1655330    1.1684943    1.1731487
:EIG00281:       1.1765501    1.1790763    1.1820261    1.1842437    1.1887328
:EIG00286:       1.1928884    1.1991151    1.2022649    1.2050515    1.2105357
:EIG00291:       1.2181993    1.2201905    1.2240405    1.2289341    1.2319283
:EIG00296:       1.2338945    1.2400341    1.2459797    1.2475089    1.2587133
 
:EIG00301:       1.2665047    1.2685609    1.2735877    1.2770359    1.2802026
:EIG00306:       1.2859623    1.2933515    1.3019403    1.3066746    1.3110003
:EIG00311:       1.3141675    1.3198239    1.3249437    1.3375725    1.3402617
:EIG00316:       1.3472113    1.3549004    1.3609237    1.3660806    1.3725280
:EIG00321:       1.3765829    1.3835268    1.3865022    1.3878439    1.3911719
:EIG00326:       1.3968878    1.4015761    1.4117277    1.4141524    1.4223735
:EIG00331:       1.4322037    1.4387375    1.4400151    1.4472868    1.4545565
:EIG00336:       1.4575714    1.4580021    1.4590346    1.4641644    1.4695270
:EIG00341:       1.4716715    1.4720988    1.4771366    1.4842218    1.4879114
:EIG00346:       1.4924432    1.5003829    1.5080848    1.5102824    1.5144708
 
:EIG00351:       1.5172001    1.5224587    1.5270962    1.5340772    1.5499472
:EIG00356:       1.5518157    1.5635128    1.5646436    1.5761532    1.5807077
:EIG00361:       1.5849315    1.5890535    1.5998240    1.6016757    1.6163668
:EIG00366:       1.6171878    1.6205958    1.6295303    1.6337313    1.6460001
:EIG00371:       1.6489602    1.6528055    1.6575320    1.6622964    1.6690649
:EIG00376:       1.6700385    1.6722261    1.6832122    1.6867785    1.6983446
:EIG00381:       1.7008214
       ********************************************************

:KPT   :      NUMBER OF K-POINTS:   144
       Insulator, EF-inconsistency corrected
:GAP (global)   :  0.178893 Ry =     2.434 eV (accurate value if proper k-mesh)
         Bandranges (emin - emax) and occupancy:
:BAN00158: 158   -0.030588   -0.019255  2.00000000
:BAN00159: 159   -0.027694   -0.018944  2.00000000
:BAN00160: 160   -0.027694   -0.017646  2.00000000
:BAN00161: 161   -0.023675   -0.015583  2.00000000
:BAN00162: 162   -0.022733   -0.013475  2.00000000
:BAN00163: 163   -0.017540   -0.007847  2.00000000
:BAN00164: 164   -0.017540   -0.007847  2.00000000
:BAN00165: 165    0.005327    0.069460  2.00000000
:BAN00166: 166    0.014807    0.071241  2.00000000
:BAN00167: 167    0.042953    0.122151  2.00000000
:BAN00168: 168    0.042953    0.159890  2.00000000
:BAN00169: 169    0.338783    0.442229  0.00000000
:BAN00170: 170    0.342430    0.442229  0.00000000
:BAN00171: 171    0.346437    0.448279  0.00000000
:BAN00172: 172    0.364195    0.448279  0.00000000
:BAN00173: 173    0.380537    0.465722  0.00000000
        Energy to separate low and high energystates:   -0.46248


:NOE  : NUMBER OF ELECTRONS          =  336.000

:FER  : F E R M I - ENERGY(TETRAH.M.)=   0.1598904822
:GMA  : POTENTIAL AND CHARGE CUT-OFF  12.00 Ry**.5

:POS001: ATOM   -1 X,Y,Z = 0.50000 0.50000 0.50000  MULT= 4  ZZ= 82.000  Pb        

       LMMAX 28
       LM=   0 0  2 0  2 1 -2 1  2 2 -2 2  4 0  4 1 -4 1  4 2 -4 2  4 3 -4 3  4 4 -4 4  6 0  6 1
        -6 1  6 2 -6 2  6 3 -6 3  6 4 -6 4  6 5 -6 5  6 6 -6 6

:CHA001: TOTAL VALENCE CHARGE INSIDE SPHERE   1 =  11.3413    (RMT=  2.5000 )
:PCS001: PARTIAL CHARGES SPHERE =  1 S,P,D,F,PX,PY,PZ,D-Z2,D-X2Y2,D-XY,D-XZ,D-YZ 
:QTL001: 1.3323 0.2704 9.7234 0.0128 0.0893 0.0899 0.0912 1.9522 1.9408 1.9509 1.9400 1.9393
        Q-s-low E-s-low   Q-p-low E-p-low   Q-d-low E-d-low   Q-f-low E-f-low
:EPL001:  0.0185 -0.9481    0.0089 -0.9396    9.6493 -0.9100    0.0011 -0.9457
        Q-s-hi  E-s-hi    Q-p-hi  E-p-hi    Q-d-hi  E-d-hi    Q-f-hi  E-f-hi 
:EPH001:  1.3138 -0.2221    0.2615 -0.0873    0.0740 -0.0517    0.0118 -0.0536

                      QXX         QXY         QYY         QZZ       UP TO R
:VZZ001:             0.65431     0.66791     0.14083    -0.79514       2.500

:POS002: ATOM   -2 X,Y,Z = 0.48491 0.94655 0.25000  MULT= 4  ZZ= 55.000  Cs        

       LMMAX 28
       LM=   0 0  1 1 -1 1  2 0  2 2 -2 2  3 1 -3 1  3 3 -3 3  4 0  4 2 -4 2  4 4 -4 4  5 1 -5 1
         5 3 -5 3  5 5 -5 5  6 0  6 2 -6 2  6 4 -6 4  6 6 -6 6

:CHA002: TOTAL VALENCE CHARGE INSIDE SPHERE   2 =  16.3033    (RMT=  2.5000 )
:PCS002: PARTIAL CHARGES SPHERE =  2 S,P,D,F,PX,PY,PZ,D-Z2,D-X2Y2,D-XY,D-XZ,D-YZ 
:QTL002: 1.7963 4.494510.0104 0.0019 1.4974 1.4983 1.4988 2.0016 2.0025 2.0013 2.0022 2.0029
        Q-s-low E-s-low   Q-p-low E-p-low   Q-d-low E-d-low   Q-f-low E-f-low
:EPL002:  1.7868 -1.3696    0.0022 -0.9390    9.9955 -4.8532    0.0000 10.0000
        Q-s-hi  E-s-hi    Q-p-hi  E-p-hi    Q-d-hi  E-d-hi    Q-f-hi  E-f-hi 
:EPH002:  0.0095 -0.0714    4.4923 -0.3947    0.0150 -0.0462    0.0019 -0.0384

                      QXX         QXY         QYY         QZZ       UP TO R
:VZZ002:             0.56085     1.62438    -0.12048    -0.44037       2.500

:POS003: ATOM   -3 X,Y,Z = 0.56000 0.50750 0.25000  MULT= 4  ZZ= 35.000  Br        

       LMMAX 28
       LM=   0 0  1 1 -1 1  2 0  2 2 -2 2  3 1 -3 1  3 3 -3 3  4 0  4 2 -4 2  4 4 -4 4  5 1 -5 1
         5 3 -5 3  5 5 -5 5  6 0  6 2 -6 2  6 4 -6 4  6 6 -6 6

:CHA003: TOTAL VALENCE CHARGE INSIDE SPHERE   3 =  15.9460    (RMT=  2.5000 )
:PCS003: PARTIAL CHARGES SPHERE =  3 S,P,D,F,PX,PY,PZ,D-Z2,D-X2Y2,D-XY,D-XZ,D-YZ 
:QTL003: 1.7963 4.132310.0143 0.0025 1.3969 1.4009 1.3345 2.0109 2.0004 2.0002 2.0017 2.0010
        Q-s-low E-s-low   Q-p-low E-p-low   Q-d-low E-d-low   Q-f-low E-f-low
:EPL003:  1.7648 -0.9412    0.0060 -0.9127   10.0003 -4.3317    0.0006 -0.9169
        Q-s-hi  E-s-hi    Q-p-hi  E-p-hi    Q-d-hi  E-d-hi    Q-f-hi  E-f-hi 
:EPH003:  0.0315 -0.2409    4.1263 -0.0537    0.0140 -0.1102    0.0018 -0.1631

                      QXX         QXY         QYY         QZZ       UP TO R
:VZZ003:            -5.42917    -0.34698    -6.67037    12.09954       2.500

:POS004: ATOM   -4 X,Y,Z = 0.19962 0.70227 0.46752  MULT= 8  ZZ= 35.000  Br        

       LMMAX 49

:CHA004: TOTAL VALENCE CHARGE INSIDE SPHERE   4 =  15.9466    (RMT=  2.5000 )
:PCS004: PARTIAL CHARGES SPHERE =  4 S,P,D,F,PX,PY,PZ,D-Z2,D-X2Y2,D-XY,D-XZ,D-YZ 
:QTL004: 1.7961 4.133610.0138 0.0024 1.3694 1.3662 1.3979 2.0027 2.0019 2.0073 2.0009 2.0010
        Q-s-low E-s-low   Q-p-low E-p-low   Q-d-low E-d-low   Q-f-low E-f-low
:EPL004:  1.7653 -0.9410    0.0058 -0.9118   10.0002 -4.3318    0.0006 -0.9178
        Q-s-hi  E-s-hi    Q-p-hi  E-p-hi    Q-d-hi  E-d-hi    Q-f-hi  E-f-hi 
:EPH004:  0.0308 -0.2414    4.1278 -0.0536    0.0136 -0.1126    0.0018 -0.1572

                      QXX         QXY         QYY         QZZ       UP TO R
:VZZ004:             2.30237    -8.63821     3.28121    -5.58358       2.500

:CHA  : TOTAL VALENCE CHARGE INSIDE UNIT CELL =     336.000000

:SUM  : SUM OF EIGENVALUES =        -799.731275949


        1.ATOM      Pb                   19 CORE STATES
:1S 001: 1S               -6465.869111422 Ry
:2S 001: 2S               -1154.915344306 Ry
:2PP001: 2P*              -1108.905982599 Ry
:2P 001: 2P                -947.947244583 Ry
:3S 001: 3S                -276.704652167 Ry
:3PP001: 3P*               -255.979358033 Ry
:3P 001: 3P                -220.065543829 Ry
:3DD001: 3D*               -186.073914407 Ry
:3D 001: 3D                -178.433595517 Ry
:4S 001: 4S                 -62.139304113 Ry
:4PP001: 4P*                -53.174491311 Ry
:4P 001: 4P                 -44.383793144 Ry
:4DD001: 4D*                -29.802978982 Ry
:4D 001: 4D                 -28.162781355 Ry
:5S 001: 5S                  -9.914021628 Ry
:5PP001: 5P*                 -6.858825904 Ry
:5P 001: 5P                  -5.217336648 Ry
:4FF001: 4F*                 -9.290348540 Ry
:4F 001: 4F                  -8.920613764 Ry

        2.ATOM      Cs                   12 CORE STATES
       CORE-FORCE in mRy/a.u. = |F|      Fx             Fy             Fz
:FCO002:   2.ATOM      8.246326954446     -8.172518268145     -1.100842130578      0.000000000000

:1S 002: 1S               -2628.589795858 Ry
:2S 002: 2S                -411.662810210 Ry
:2PP002: 2P*               -387.225645238 Ry
:2P 002: 2P                -361.333858882 Ry
:3S 002: 3S                 -85.112433588 Ry
:3PP002: 3P*                -74.909039494 Ry
:3P 002: 3P                 -69.947161364 Ry
:3DD002: 3D*                -52.027914658 Ry
:3D 002: 3D                 -50.974581139 Ry
:4S 002: 4S                 -15.577857658 Ry
:4PP002: 4P*                -11.916998982 Ry
:4P 002: 4P                 -10.905047311 Ry

        3.ATOM      Br                    7 CORE STATES
[...]
:EIG00141:      -0.0303140   -0.0290182   -0.0278887   -0.0221757   -0.0134340
:EIG00146:      -0.0030972   -0.0015649   -0.0002340    0.0013928    0.0036773
 
:EIG00151:       0.0045966    0.0076670    0.0102593    0.0117973    0.0124086
:EIG00156:       0.0132051    0.0138432    0.0205465    0.0261825    0.0276796
:EIG00161:       0.0294061    0.0335734    0.0369358    0.0392026    0.0509149
:EIG00166:       0.0671663    0.1048484    0.1501832    0.2966010    0.2989891
:EIG00171:       0.3068395    0.3277958    0.3408822    0.3576163    0.4335208
:EIG00176:       0.5108605    0.5140226    0.5176881    0.5223227    0.5280167
:EIG00181:       0.5302733    0.5340698    0.5462714    0.5530117    0.5612564
:EIG00186:       0.5666656    0.5701593    0.5705397    0.5775148    0.5788961
:EIG00191:       0.5823991    0.5841973    0.5920225    0.6034862    0.6100006
:EIG00196:       0.6125074    0.6325633    0.6354421    0.6398299    0.6477965
 
:EIG00201:       0.6505404    0.6550042    0.6612110    0.6728677    0.6748107
:EIG00206:       0.6942125    0.7005406    0.7034069    0.7152793    0.7241652
:EIG00211:       0.7358720    0.7454568    0.7598983    0.7624810    0.7730147
:EIG00216:       0.7751084    0.7815012    0.7917825    0.7979225    0.8105776
:EIG00221:       0.8119872    0.8175909    0.8191023    0.8435054    0.8637070
:EIG00226:       0.8679005    0.8741170    0.8768491    0.8822339    0.8836705
:EIG00231:       0.8894016    0.8971176    0.9007571    0.9123643    0.9291904
:EIG00236:       0.9418099    0.9478384    0.9553085    0.9662989    0.9699776
:EIG00241:       0.9761921    0.9784354    0.9858853    0.9990710    1.0053583
:EIG00246:       1.0073855    1.0113110    1.0252973    1.0307823    1.0325542
 
:EIG00251:       1.0344270    1.0374454    1.0531006    1.0697792    1.0757414
:EIG00256:       1.0788160    1.0888994    1.0947399    1.0958224    1.0990631
:EIG00261:       1.0999117    1.1080131    1.1094070    1.1142808    1.1178382
:EIG00266:       1.1229438    1.1275375    1.1306747    1.1343329    1.1394148
:EIG00271:       1.1419649    1.1466502    1.1538150    1.1570455    1.1633031
:EIG00276:       1.1686414    1.1728721    1.1767390    1.1776225    1.1816634
:EIG00281:       1.1869968    1.1874955    1.1921929    1.1946899    1.1992695
:EIG00286:       1.2009021    1.2051900    1.2137868    1.2161284    1.2188312
:EIG00291:       1.2269877    1.2304927    1.2342325    1.2384645    1.2427132
:EIG00296:       1.2461495    1.2527694    1.2581333    1.2617285    1.2690768
 
:EIG00301:       1.2754656    1.2790943    1.2794871    1.2847706    1.2908452
:EIG00306:       1.2942605    1.2980634    1.3071602    1.3096142    1.3166681
:EIG00311:       1.3186651    1.3240911    1.3321127    1.3412386    1.3477763
:EIG00316:       1.3549219    1.3579488    1.3721045    1.3768949    1.3804504
:EIG00321:       1.3884625    1.3916286    1.3930115    1.3932229    1.3950376
:EIG00326:       1.4049018    1.4090259    1.4132321    1.4223980    1.4294340
:EIG00331:       1.4318754    1.4401729    1.4454094    1.4564185    1.4640978
:EIG00336:       1.4669475    1.4676441    1.4687942    1.4727185    1.4740564
:EIG00341:       1.4804017    1.4825237    1.4881665    1.4926754    1.5003345
:EIG00346:       1.5057492    1.5067425    1.5164928    1.5232764    1.5274558
 
:EIG00351:       1.5299892    1.5343735    1.5396917    1.5465318    1.5580277
:EIG00356:       1.5622847    1.5694027    1.5768751    1.5831057    1.5877806
:EIG00361:       1.5961950    1.5984063    1.6064986    1.6154839    1.6265833
:EIG00366:       1.6274295    1.6355370    1.6387904    1.6438017    1.6451658
       ********************************************************

:KPT   :      NUMBER OF K-POINTS:   144
       Insulator, EF-inconsistency corrected
:GAP (global)   :  0.146418 Ry =     1.992 eV (accurate value if proper k-mesh)
         Bandranges (emin - emax) and occupancy:
:BAN00158: 158    0.014526    0.027417  2.00000000
:BAN00159: 159    0.016074    0.028125  2.00000000
:BAN00160: 160    0.016074    0.028125  2.00000000
:BAN00161: 161    0.017813    0.031994  2.00000000
:BAN00162: 162    0.017813    0.033573  2.00000000
:BAN00163: 163    0.029789    0.039795  2.00000000
:BAN00164: 164    0.029789    0.039795  2.00000000
:BAN00165: 165    0.043580    0.072025  2.00000000
:BAN00166: 166    0.045137    0.074646  2.00000000
:BAN00167: 167    0.049555    0.115150  2.00000000
:BAN00168: 168    0.049555    0.150183  2.00000000
:BAN00169: 169    0.296601    0.417307  0.00000000
:BAN00170: 170    0.298989    0.417307  0.00000000
:BAN00171: 171    0.306839    0.423801  0.00000000
:BAN00172: 172    0.323516    0.423801  0.00000000
:BAN00173: 173    0.337474    0.436683  0.00000000
        Energy to separate low and high energystates:   -0.18588


:NOE  : NUMBER OF ELECTRONS          =  336.000

:FER  : F E R M I - ENERGY(TETRAH.M.)=   0.1501831879
:GMA  : POTENTIAL AND CHARGE CUT-OFF  12.00 Ry**.5

:POS001: ATOM   -1 X,Y,Z = 0.50000 0.50000 0.50000  MULT= 4  ZZ= 82.000  Pb        

       LMMAX 28
       LM=   0 0  2 0  2 1 -2 1  2 2 -2 2  4 0  4 1 -4 1  4 2 -4 2  4 3 -4 3  4 4 -4 4  6 0  6 1
        -6 1  6 2 -6 2  6 3 -6 3  6 4 -6 4  6 5 -6 5  6 6 -6 6

:CHA001: TOTAL VALENCE CHARGE INSIDE SPHERE   1 =  11.5386    (RMT=  2.5000 )
:PCS001: PARTIAL CHARGES SPHERE =  1 S,P,D,F,PX,PY,PZ,D-Z2,D-X2Y2,D-XY,D-XZ,D-YZ 
:QTL001: 1.3783 0.3876 9.7550 0.0151 0.1287 0.1293 0.1296 1.9589 1.9468 1.9577 1.9461 1.9455
        Q-s-low E-s-low   Q-p-low E-p-low   Q-d-low E-d-low   Q-f-low E-f-low
:EPL001:  1.0863 -0.4364    0.0161 -0.7698    9.6885 -1.0571    0.0015 -0.8206
        Q-s-hi  E-s-hi    Q-p-hi  E-p-hi    Q-d-hi  E-d-hi    Q-f-hi  E-f-hi 
:EPH001:  0.2920  0.0542    0.3715 -0.0726    0.0665 -0.0106    0.0136 -0.0136

                      QXX         QXY         QYY         QZZ       UP TO R
:VZZ001:             0.38088     0.73635    -0.14494    -0.23594       2.500

:POS002: ATOM   -2 X,Y,Z = 0.48491 0.94655 0.25000  MULT= 4  ZZ= 55.000  Cs        

       LMMAX 28
       LM=   0 0  1 1 -1 1  2 0  2 2 -2 2  3 1 -3 1  3 3 -3 3  4 0  4 2 -4 2  4 4 -4 4  5 1 -5 1
         5 3 -5 3  5 5 -5 5  6 0  6 2 -6 2  6 4 -6 4  6 6 -6 6

:CHA002: TOTAL VALENCE CHARGE INSIDE SPHERE   2 =  16.3307    (RMT=  2.5000 )
:PCS002: PARTIAL CHARGES SPHERE =  2 S,P,D,F,PX,PY,PZ,D-Z2,D-X2Y2,D-XY,D-XZ,D-YZ 
:QTL002: 1.7985 4.516510.0133 0.0022 1.5046 1.5056 1.5063 2.0021 2.0031 2.0018 2.0027 2.0036
        Q-s-low E-s-low   Q-p-low E-p-low   Q-d-low E-d-low   Q-f-low E-f-low
:EPL002:  1.7884 -1.3723    4.3868 -0.4066    9.9956 -4.8599    0.0001 -0.7624
        Q-s-hi  E-s-hi    Q-p-hi  E-p-hi    Q-d-hi  E-d-hi    Q-f-hi  E-f-hi 
:EPH002:  0.0101 -0.0262    0.1297 -0.0134    0.0177  0.0001    0.0021  0.0092

                      QXX         QXY         QYY         QZZ       UP TO R
:VZZ002:             0.78223     2.19374    -0.08048    -0.70175       2.500

:POS003: ATOM   -3 X,Y,Z = 0.56000 0.50750 0.25000  MULT= 4  ZZ= 35.000  Br        

       LMMAX 28
       LM=   0 0  1 1 -1 1  2 0  2 2 -2 2  3 1 -3 1  3 3 -3 3  4 0  4 2 -4 2  4 4 -4 4  5 1 -5 1
         5 3 -5 3  5 5 -5 5  6 0  6 2 -6 2  6 4 -6 4  6 6 -6 6

:CHA003: TOTAL VALENCE CHARGE INSIDE SPHERE   3 =  15.7666    (RMT=  2.5000 )
:PCS003: PARTIAL CHARGES SPHERE =  3 S,P,D,F,PX,PY,PZ,D-Z2,D-X2Y2,D-XY,D-XZ,D-YZ 
:QTL003: 1.7832 3.965510.0142 0.0029 1.3540 1.3605 1.2510 2.0105 2.0004 2.0002 2.0019 2.0012
        Q-s-low E-s-low   Q-p-low E-p-low   Q-d-low E-d-low   Q-f-low E-f-low
:EPL003:  1.7711 -0.8793    0.0876 -0.4545   10.0048 -4.2593    0.0015 -0.6655
        Q-s-hi  E-s-hi    Q-p-hi  E-p-hi    Q-d-hi  E-d-hi    Q-f-hi  E-f-hi 
:EPH003:  0.0121 -0.0270    3.8779 -0.0081    0.0094  0.0005    0.0015 -0.0410

                      QXX         QXY         QYY         QZZ       UP TO R
:VZZ003:            -8.94501    -0.27778   -10.83615    19.78116       2.500

:POS004: ATOM   -4 X,Y,Z = 0.19962 0.70227 0.46752  MULT= 8  ZZ= 35.000  Br        

       LMMAX 49

:CHA004: TOTAL VALENCE CHARGE INSIDE SPHERE   4 =  15.7655    (RMT=  2.5000 )
:PCS004: PARTIAL CHARGES SPHERE =  4 S,P,D,F,PX,PY,PZ,D-Z2,D-X2Y2,D-XY,D-XZ,D-YZ 
:QTL004: 1.7831 3.965010.0139 0.0029 1.3074 1.3021 1.3555 2.0027 2.0021 2.0071 2.0010 2.0010
        Q-s-low E-s-low   Q-p-low E-p-low   Q-d-low E-d-low   Q-f-low E-f-low
:EPL004:  1.7711 -0.8781    0.0851 -0.4538   10.0047 -4.2583    0.0014 -0.6675
        Q-s-hi  E-s-hi    Q-p-hi  E-p-hi    Q-d-hi  E-d-hi    Q-f-hi  E-f-hi 
:EPH004:  0.0119 -0.0286    3.8799 -0.0071    0.0092 -0.0019    0.0015 -0.0370

                      QXX         QXY         QYY         QZZ       UP TO R
:VZZ004:             3.90429   -14.11274     5.45773    -9.36203       2.500

:CHA  : TOTAL VALENCE CHARGE INSIDE UNIT CELL =     336.000000

:SUM  : SUM OF EIGENVALUES =        -794.259925325


        1.ATOM      Pb                   19 CORE STATES
:1S 001: 1S               -6466.046867141 Ry
:2S 001: 2S               -1155.082780717 Ry
:2PP001: 2P*              -1109.075506554 Ry
:2P 001: 2P                -948.115231557 Ry
:3S 001: 3S                -276.863797364 Ry
:3PP001: 3P*               -256.139029747 Ry
:3P 001: 3P                -220.224529229 Ry
:3DD001: 3D*               -186.233575788 Ry
:3D 001: 3D                -178.592992908 Ry
:4S 001: 4S                 -62.295106409 Ry
:4PP001: 4P*                -53.330322926 Ry
:4P 001: 4P                 -44.539400234 Ry
:4DD001: 4D*                -29.958458426 Ry
:4D 001: 4D                 -28.318170128 Ry
:5S 001: 5S                 -10.067584844 Ry
:5PP001: 5P*                 -7.012502216 Ry
:5P 001: 5P                  -5.371017849 Ry
:4FF001: 4F*                 -9.445246829 Ry
:4F 001: 4F                  -9.075472184 Ry

        2.ATOM      Cs                   12 CORE STATES
       CORE-FORCE in mRy/a.u. = |F|      Fx             Fy             Fz
:FCO002:   2.ATOM      6.244571713127     -6.240862499894      0.215200227234      0.000000000000

:1S 002: 1S               -2628.625639125 Ry
:2S 002: 2S                -411.688872607 Ry
:2PP002: 2P*               -387.253590781 Ry
:2P 002: 2P                -361.361178397 Ry
:3S 002: 3S                 -85.127186586 Ry
:3PP002: 3P*                -74.924262864 Ry
:3P 002: 3P                 -69.961959651 Ry
:3DD002: 3D*                -52.043723310 Ry
:3D 002: 3D                 -50.990225837 Ry
:4S 002: 4S                 -15.585746467 Ry
:4PP002: 4P*                -11.924704776 Ry
:4P 002: 4P                 -10.912515001 Ry

        3.ATOM      Br                    7 CORE STATES
       CORE-FORCE in mRy/a.u. = |F|      Fx             Fy             Fz
:FCO003:   3.ATOM     81.446941628461    -69.761097712342     42.035622352939      0.000000000000

:1S 003: 1S                -977.888182136 Ry
:2S 003: 2S                -126.682799772 Ry
:2PP003: 2P*               -114.013449624 Ry
:2P 003: 2P                -110.521980714 Ry
:3S 003: 3S                 -16.850844028 Ry
:3PP003: 3P*                -12.446272800 Ry
:3P 003: 3P                 -11.943974019 Ry

        4.ATOM      Br                    7 CORE STATES
       CORE-FORCE in mRy/a.u. = |F|      Fx             Fy             Fz
:FCO004:   4.ATOM    111.014570183972     75.843195660552     62.051158758999     52.169897084361

:1S 004: 1S                -977.887126893 Ry
:2S 004: 2S                -126.681736321 Ry
:2PP004: 2P*               -114.012387181 Ry
:2P 004: 2P                -110.520918110 Ry
:3S 004: 3S                 -16.849771549 Ry
:3PP004: 3P*                -12.445200000 Ry
:3P 004: 3P                 -11.942900907 Ry
:CINT001 Core Integral Atom   1   67.995194
:CINT002 Core Integral Atom   2   35.999909
:CINT003 Core Integral Atom   3   17.999988
:CINT004 Core Integral Atom   4   17.999988

       DENSITY AT NUCLEUS
        JATOM        VALENCE       SEMI-CORE          CORE           TOTAL
:RTO001:   1     2064.857958        0.000000  9911372.989509  9913437.847467
:RTO002:   2      321.629887        0.000000   438173.487951   438495.117838
:RTO003:   3       72.183110        0.000000    45839.367873    45911.550983
:RTO004:   4       72.174618        0.000000    45839.368430    45911.543047
     
       CHARGES OF NEW CHARGE DENSITY
:NTO   : INTERSTITIAL CHARGE =    35.332262
:NPC   : PW Pseudocharge     =   129.222425
:NTO001: CHARGE SPHERE  1    =    79.533786
:NTO002: CHARGE SPHERE  2    =    52.330565
:NTO003: CHARGE SPHERE  3    =    33.766618
:NTO004: CHARGE SPHERE  4    =    33.765516

:NEC01: NUCLEAR AND ELECTRONIC CHARGE    968.00000   967.98027
     
       CHARGES OF OLD CHARGE DENSITY
:OTO   : INTERSTITIAL CHARGE =    35.356468
:OPC   : PW Pseudocharge     =   129.321281
:OTO001: CHARGE SPHERE  1    =    79.534805
:OTO002: CHARGE SPHERE  2    =    52.330527
:OTO003: CHARGE SPHERE  3    =    33.765876
:OTO004: CHARGE SPHERE  4    =    33.764837

:NEC02: NUCLEAR AND ELECTRONIC CHARGE    968.00000   968.00000
     
       CONVERGENCE TEST
:DTO001: DIFFERENCE IN SPHERE  1 =  0.0007507
:DTO002: DIFFERENCE IN SPHERE  2 =  0.0002323
:DTO003: DIFFERENCE IN SPHERE  3 =  0.0005154
:DTO004: DIFFERENCE IN SPHERE  4 =  0.0004880

:DIS  :  CHARGE DISTANCE       ( 0.0007507 for atom    1 spin 1)      0.0004949
 PW Mixed is         6293
 
******************************************************
* MULTISECANT MIXING VER9 RELEASE 10.4.0              *
* Standard Mode with controls                        *
* Fixed density scale                                *
* Regularization       1.000E-04                     *
* Trust Upper Limit    5.000E+00                     *
* Max Number of Memory Steps    8                    *
******************************************************
 
:PWTMP   3.9481E+03  2.5000E+03  5.2571E+03
:PLANE:  PW TOTAL     10.6956 DISTAN   4.39E-03  4.10E-02 %
:CHARG:  CLM/ATOM   1115.9448 DISTAN   6.13E-04  5.49E-05 %
 
Step History
        DMIX         DMIXT        Red     Pred      Trust     Lambda    MagRel    MagAbs     Beta
  1   3.5000E-02   3.5000E-02 -1.00E+00  1.00E+00 -1.00E+01  1.00E+00  3.50E-02  3.50E-02  1.00E+00
  2   2.5000E-02   2.5000E-02  3.94E-01  1.00E+00 -1.00E+01  1.00E+00  2.50E-02  6.65E-02  1.00E+00
  3   3.6191E-02   3.6191E-02  9.04E-01  1.00E+00 -1.00E+01  4.57E-02  3.62E-02  3.79E-02  1.00E+00
  4   9.0478E-02   9.0478E-02  8.27E-01  1.00E+00  2.83E-01  1.34E+00  9.05E-02  8.57E-02  9.97E-01
  5   2.1625E-01   1.3460E-01  6.54E-01  7.30E-01  5.13E-01  1.37E+00  2.23E-01  1.75E-01  1.00E+00
  6   3.5000E-01   3.5000E-01  2.36E-01  4.37E-01  1.33E+00  1.87E-01  8.71E-01  4.47E-01  1.00E+00
  7   2.4784E-01   2.4784E-01  5.29E-01  7.80E-01  5.38E+00  7.75E-01  5.14E-01  6.22E-02  1.00E+00
  8   3.5000E-01   3.5000E-01  3.02E-01  4.88E-01  7.23E+00  1.01E+00  8.70E-01  5.58E-02  1.00E+00
  9   3.5000E-01   3.5000E-01 -1.00E+00  3.59E-01  1.21E+01  1.00E+00  7.87E-01  1.52E-02  1.00E+00
:JACOBIANS    2.118E+00   1.483E+00
  
:NORMS:  1/Froebius, Min, Max, Used   0.8998E+00  0.5746E+00  0.1144E+01  0.9770E+00
:INFO :  Number of Memory Steps    8 Skipping    0
:INFO :  SLambda=    0.8951462164  Max    0.8951462164
:PREDicted Charge, CTotal, PW Trust    1.206E-03   1.040E-02   5.048E-02
:PREDicted DMix, Beta, BLim   2.7133E-01  1.2082E+00  1.8298E+01

Eigenvalues, unscaled except for SY+YY
   #     SY Real        SY Imag          SS             YY         SY+YY Real      SY+YY Imag
   1   2.641037E+00   0.000000E+00   3.889358E+00   4.074900E+00   6.322916E+00   0.000000E+00
   2   1.982634E+00   0.000000E+00   1.186354E+00   2.067927E+00   3.938751E+00   0.000000E+00
   3   1.068926E+00   0.000000E+00   1.060920E+00   1.064903E+00   2.009851E+00   0.000000E+00
   4   5.062474E-01   0.000000E+00   3.290523E-01   7.238871E-01   1.207446E+00   0.000000E+00
   5   3.140472E-02   0.000000E+00   1.164516E-02   6.798376E-02   9.761903E-02   0.000000E+00
   6   1.565945E-04   0.000000E+00   8.562909E-05   3.791503E-04   5.225399E-04   0.000000E+00
   7   6.037067E-15   0.000000E+00   1.593014E-06   1.857401E-05   7.982627E-07   0.000000E+00
   8   5.343261E-06   0.000000E+00  -4.974258E-17   8.046022E-07   2.329625E-05   0.000000E+00
 
:INFO :  Singular value  6.455E+00 Weight  1.000E+00 Projection  1.137E-03
:INFO :  Singular value  3.869E+00 Weight  1.000E+00 Projection  1.154E-03
:INFO :  Singular value  2.007E+00 Weight  1.000E+00 Projection -1.089E-03
:INFO :  Singular value  1.207E+00 Weight  1.000E+00 Projection  2.687E-03
:INFO :  Singular value  9.754E-02 Weight  1.000E+00 Projection  1.430E-04
:INFO :  Singular value  5.226E-04 Weight  6.219E-01 Projection  5.152E-02
:INFO :  Singular value  2.329E-05 Weight  3.257E-03 Projection -4.613E-04
:INFO :  Singular value  7.983E-07 Weight  3.838E-06 Projection  2.358E-06
:RANK :  ACTIVE   5.63/8  =  70.31 % ; YY RANK   5.47/8  =  68.33 %
 
:BLIM :  VZERO Control Off
:TRUST:  Step 1.61E+01  Charge 1.14E-01 (e) CTO  4.29E-01 (e) PW  5.39E-01 (e)
:DIRM :  MEMORY  8/8  SCALE   1.000 RED  0.26 PRED  0.36 NEXT  0.73 
:TRAVE:  Charge 7.38E-03 (e) CTO  3.26E-02 (e) PW  5.95E-02 (e)
:DIRP :  |MSR1|= 4.664E-03 |PRATT|= 4.386E-03 ANGLE=  18.6 DEGREES
:DIRQ :  |MSR1|= 1.542E-03 |PRATT|= 2.450E-03 ANGLE=  60.9 DEGREES
:DIRT :  |MSR1|= 4.912E-03 |PRATT|= 5.024E-03 ANGLE=  30.7 DEGREES
:MIX  :   MSD1   REGULARIZATION:  4.07E-04 GREED: 0.29769  Newton 1.00  0.9779                
     
       CHARGES OF MIXED CHARGE DENSITY
:CTO   : INTERSTITIAL CHARGE =    35.352661
:CPC   : PW Pseudocharge     =   129.293351
:CTO001: CHARGE SPHERE  1    =    79.534243
:CTO002: CHARGE SPHERE  2    =    52.330735
:CTO003: CHARGE SPHERE  3    =    33.766321
:CTO004: CHARGE SPHERE  4    =    33.765268

:NEC03: NUCLEAR AND ELECTRONIC CHARGE    968.00000   968.00000

PW CHANGE     H    K    L      Current       Change    Residue
:PTO001:      0    0    0  3.13189507E-02 -6.037E-06 -5.929E-06
:PTO006:     -1    0   -1 -2.90786546E-03  1.205E-06  1.882E-06
:PTO007:      0    0   -2  2.62465660E-03 -4.376E-06 -4.533E-06
:PTO008:     -1   -1    0  4.93813031E-03 -7.771E-06 -7.445E-06
:PTO009:     -1   -1   -1 -1.29466746E-02 -1.654E-06 -6.378E-07
:PTO012:      0   -2    0  8.14961379E-03 -2.135E-06 -3.736E-06
:PTO013:     -1   -1   -2  2.50195919E-02 -5.993E-06 -1.410E-05
:PTO014:     -2    0    0  8.15247825E-03 -1.936E-06 -3.713E-06
:PTO015:      0   -2   -1  7.24780399E-03  1.142E-06 -1.667E-09
:PTO018:     -1   -2    0 -1.33855092E-02  3.372E-06  2.735E-06
:PTO019:     -2   -1    0  1.47483623E-02 -3.579E-06 -2.895E-06
:PTO021:     -1   -2   -1  1.54408413E-02 -2.797E-06 -1.151E-06

:ENE  : ********** TOTAL ENERGY IN Ry =      -292313.10025338

       TOTAL FORCE IN mRy/a.u. = |F|     Fx             Fy             Fz     with/without FOR in case.in2
:FOR001:   1.ATOM          0.000          0.000          0.000          0.000 partial forces
:FOR002:   2.ATOM          0.545         -0.113          0.534          0.000 partial forces
:FOR003:   3.ATOM         25.273         22.960        -10.562          0.000 partial forces
:FOR004:   4.ATOM         34.541        -23.311        -19.290        -16.661 partial forces
       TOTAL FORCE WITH RESPECT TO GLOBAL CARTESIAN COORDINATES:
:FCA001:   1.ATOM                         0.000          0.000          0.000 partial forces
:FCA002:   2.ATOM                        -0.113          0.534          0.000 partial forces
:FCA003:   3.ATOM                        22.960        -10.562          0.000 partial forces
:FCA004:   4.ATOM                       -23.311        -19.290        -16.661 partial forces
       TOTAL FORCE WITH RESPECT TO THE GLOBAL COORDINATE SYSTEM:
:FGL001:   1.ATOM                 0.000000000     0.000000000     0.000000000 partial forces
:FGL002:   2.ATOM                -0.112769433     0.533624113     0.000000000 partial forces
:FGL003:   3.ATOM                22.960060242   -10.562315443     0.000000000 partial forces
:FGL004:   4.ATOM               -23.311199785   -19.290147361   -16.660921264 partial forces
