
:LABEL1: Calculations in /home/cmueller/wien/FZU/src/FeRh/FFM/10000k
:LABEL2: on cv036 at Wed Mar 12 12:01:36 PM CET 2025
:LABEL3: using WIEN2k_19.1 (Release 25/6/2019) in /home/cmueller/WIENROOT
:LABEL4: using the command: runsp_lapw
 Flat Integration
 New Mode for Coulomb Integral
 Consistent 3/8+Simpson combinations
 Extension of core to zero
 LDM version in phi
 Fifth-order quadrature in outwin


            ---------
:ITE001:  1. ITERATION
            ---------

:NATO :    3 INDEPENDENT AND    4 TOTAL ATOMS IN UNITCELL
       SUBSTANCE: FeRh                                                        

       LATTICE                      = F   
:POT  : POTENTIAL OPTION EX_PBE EC_PBE VX_PBE VC_PBE
:LAT  : LATTICE CONSTANTS= 11.27222 11.27222 11.27222    1.571    1.571    1.571
:VOL  : UNIT CELL VOLUME =     358.07036
       MODE OF CALCULATION IS       = RELA
       SPINPOLARIZED CALCULATION
:IFFT  : FFT-parameters:   90   90   90 Factor: 2.00


   CONVERGENCE PARAMETER FOR PSEUDOCHARGE: NCON=  9
   MAXIMAL VALUE OF RMT(JATOM)*ABSK(NKK) : RK  =29.05063


:VKCOUL :  VK-COUL convergence: 0.126E-05
       ATOMNUMBER=  1 Fe1        VCOUL-ZERO =  0.65836E+00
       ATOMNUMBER=  2 Fe2        VCOUL-ZERO =  0.65836E+00
       ATOMNUMBER=  3 Rh1        VCOUL-ZERO =  0.62973E+00
:FIT001: LUSE= 13 SIGMA OF V-XC FIT FOR ATOM  1  0.7350795E-02
:FIT001: LUSE= 13 SIGMA OF V-XC FIT FOR ATOM  1  0.2536863E-02
:FIT002: LUSE= 13 SIGMA OF V-XC FIT FOR ATOM  2  0.7350795E-02
:FIT002: LUSE= 13 SIGMA OF V-XC FIT FOR ATOM  2  0.2536863E-02
:FIT003: LUSE= 13 SIGMA OF V-XC FIT FOR ATOM  3  0.1535975E-02
:FIT003: LUSE= 13 SIGMA OF V-XC FIT FOR ATOM  3  0.2664318E-03
:DEN  : DENSITY INTEGRAL  =         -9889.60555609   (Ry)
       ELS_POTENTIAL_AT Z=0 and Z=0.5:  -0.23886  -0.23886
       ELS_POTENTIAL_AT Y=0 and Y=0.5:   0.00000   0.00000
:VZERO:v0,v0c,v0x  -1.05054  -0.23886  -0.81168 v5,v5c,v5x  -1.05054  -0.23886  -0.81168
:VZERY:v0,v0c,v0x  -0.92344   0.00000  -0.92344 v5,v5c,v5x  -0.92344   0.00000  -0.92344
:VZERX:v0,v0c,v0x  -0.92344   0.00000  -0.92344 v5,v5c,v5x  -0.92344   0.00000  -0.92344
:LMAX-WF:   10   Non-Spherical LMAX:   4

          ATOMIC SPHERE DEPENDENT PARAMETERS FOR ATOM  Fe1       
:e__0001: OVERALL ENERGY PARAMETER IS    0.3000
          OVERALL BASIS SET ON ATOM IS LAPW
:E1_0001: E( 1)=    0.3000
             APW+lo
:E1_0001: E( 1)=   -3.1653   E(BOTTOM)=   -3.198   E(TOP)=   -3.132  1  2   181
             LOCAL ORBITAL
:E2_0001: E( 2)=    0.6147   E(BOTTOM)=    0.370   E(TOP)=    0.859  0  1   131
             APW+lo
:E0_0001: E( 0)=    0.3000
             APW+lo

          ATOMIC SPHERE DEPENDENT PARAMETERS FOR ATOM  Fe2       
:e__0002: OVERALL ENERGY PARAMETER IS    0.3000
          OVERALL BASIS SET ON ATOM IS LAPW
:E1_0002: E( 1)=    0.3000
             APW+lo
:E1_0002: E( 1)=   -3.1653   E(BOTTOM)=   -3.198   E(TOP)=   -3.132  1  2   181
             LOCAL ORBITAL
:E2_0002: E( 2)=    0.6147   E(BOTTOM)=    0.370   E(TOP)=    0.859  0  1   131
             APW+lo
:E0_0002: E( 0)=    0.3000
             APW+lo

          ATOMIC SPHERE DEPENDENT PARAMETERS FOR ATOM  Rh1       
:e__0003: OVERALL ENERGY PARAMETER IS    0.3000
          OVERALL BASIS SET ON ATOM IS LAPW
:E1_0003: E( 1)=    0.3000
             APW+lo
:E1_0003: E( 1)=   -2.6264   E(BOTTOM)=   -2.727   E(TOP)=   -2.526  2  3   169
             LOCAL ORBITAL
:E2_0003: E( 2)=    0.3000   E(BOTTOM)=    0.162   E(TOP)= -200.000  1 -1    93
             APW+lo
:E0_0003: E( 0)=    0.3000
             APW+lo

       K=   0.00000   0.00000   0.00000            1
:RKM  : MATRIX SIZE   185LOs:  48  RKM= 6.64  WEIGHT= 1.00  PGR:    
       EIGENVALUES ARE:
:EIG00001:      -3.1592692   -3.1592692   -3.1592692   -3.1573674   -3.1573674
:EIG00006:      -3.1573674   -2.6092520   -2.6092520   -2.6092520   -2.6012618
:EIG00011:      -2.6012618   -2.6012618    0.0702128    0.3403113    0.3403113
:EIG00016:       0.4127452    0.4127452    0.4127452    0.5386641    0.5386641
:EIG00021:       0.5386641    0.5742451    0.5742451    0.5742451    0.7150896
:EIG00026:       0.7150896    0.7283402    0.7283402    0.7773508    0.7773508
:EIG00031:       0.8113171    0.8113171    0.8113171    1.2586075    1.3237486
:EIG00036:       1.3237486    1.3237486    1.3308865    1.3308865    1.3308865
:EIG00041:       1.4580028    1.4580028    1.4580028    1.4995530
       ********************************************************

:KPT   :      NUMBER OF K-POINTS:   286
:LMAX-WF:   10   Non-Spherical LMAX:   4

          ATOMIC SPHERE DEPENDENT PARAMETERS FOR ATOM  Fe1       
:e__0001: OVERALL ENERGY PARAMETER IS    0.3000
          OVERALL BASIS SET ON ATOM IS LAPW
:E1_0001: E( 1)=    0.3000
             APW+lo
:E1_0001: E( 1)=   -2.9761   E(BOTTOM)=   -3.010   E(TOP)=   -2.942  1  2   199
             LOCAL ORBITAL
:E2_0001: E( 2)=    0.5413   E(BOTTOM)=    0.541   E(TOP)= -200.000  0 -1    95
             APW+lo
:E0_0001: E( 0)=    0.3000
             APW+lo

          ATOMIC SPHERE DEPENDENT PARAMETERS FOR ATOM  Fe2       
:e__0002: OVERALL ENERGY PARAMETER IS    0.3000
          OVERALL BASIS SET ON ATOM IS LAPW
:E1_0002: E( 1)=    0.3000
             APW+lo
:E1_0002: E( 1)=   -2.9761   E(BOTTOM)=   -3.010   E(TOP)=   -2.942  1  2   199
             LOCAL ORBITAL
:E2_0002: E( 2)=    0.5413   E(BOTTOM)=    0.541   E(TOP)= -200.000  0 -1    95
             APW+lo
:E0_0002: E( 0)=    0.3000
             APW+lo

          ATOMIC SPHERE DEPENDENT PARAMETERS FOR ATOM  Rh1       
:e__0003: OVERALL ENERGY PARAMETER IS    0.3000
          OVERALL BASIS SET ON ATOM IS LAPW
:E1_0003: E( 1)=    0.3000
             APW+lo
:E1_0003: E( 1)=   -2.5251   E(BOTTOM)=   -2.624   E(TOP)=   -2.426  2  3   176
             LOCAL ORBITAL
:E2_0003: E( 2)=    0.3000   E(BOTTOM)=    0.279   E(TOP)= -200.000  1 -1    88
             APW+lo
:E0_0003: E( 0)=    0.3000
             APW+lo

       K=   0.00000   0.00000   0.00000            1
:RKM  : MATRIX SIZE   185LOs:  48  RKM= 6.64  WEIGHT= 1.00  PGR:    
       EIGENVALUES ARE:
:EIG00001:      -2.9699321   -2.9699321   -2.9699321   -2.9679656   -2.9679656
:EIG00006:      -2.9679656   -2.5081439   -2.5081439   -2.5081439   -2.5001318
:EIG00011:      -2.5001318   -2.5001318    0.2185870    0.4810755    0.4810755
:EIG00016:       0.5433070    0.5433070    0.5433070    0.7099103    0.7099103
:EIG00021:       0.7099103    0.7183062    0.7183062    0.7183062    0.8769347
:EIG00026:       0.8769347    0.8912694    0.8912694    0.9143182    0.9143182
:EIG00031:       0.9685508    0.9685508    0.9685508    1.4095004    1.4799114
:EIG00036:       1.4799114    1.4799114    1.5019596    1.5019596    1.5019596
:EIG00041:       1.5990375    1.5990375    1.5990375    1.6298367
       ********************************************************

:KPT   :      NUMBER OF K-POINTS:   286
:GAP (global)   :    0.0    Ry =     0.0   eV (metal)
:GAP (this spin):    0.0    Ry =     0.0   eV (metal)
         Bandranges (emin - emax) and occupancy:
:BAN00025:  25    0.627106    0.715090  1.00000000
:BAN00026:  26    0.646146    0.723582  1.00000000
:BAN00027:  27    0.656549    0.728340  1.00000000
:BAN00028:  28    0.681699    0.729038  1.00000000
:BAN00029:  29    0.700054    0.777351  1.00000000
:BAN00030:  30    0.715341    0.777351  1.00000000
:BAN00031:  31    0.723786    0.811317  1.00000000
:BAN00032:  32    0.744285    0.811317  1.00000000
:BAN00033:  33    0.750780    0.830376  1.00000000
:BAN00034:  34    0.787825    1.261166  0.30182459
:BAN00035:  35    0.830033    1.323749  0.00019640
:BAN00036:  36    0.847818    1.323749  0.00000000
:BAN00037:  37    1.270901    1.495638  0.00000000
:BAN00038:  38    1.284060    1.599876  0.00000000
:BAN00039:  39    1.321718    1.798921  0.00000000
:BAN00040:  40    1.330886    1.807941  0.00000000
        Energy to separate low and high energystates:    0.02021


:NOE  : NUMBER OF ELECTRONS          =   58.000

:FER  : F E R M I - ENERGY(TETRAH.M.)=   0.8325606025
:GMA  : POTENTIAL AND CHARGE CUT-OFF  12.00 Ry**.5

:POS001: ATOM    1 X,Y,Z = 0.00000 0.00000 0.00000  MULT= 1  ZZ= 26.000  Fe1       

       LMMAX  5
       LM=   0 0  4 0  4 4  6 0  6 4

:CHA001: TOTAL VALENCE CHARGE INSIDE SPHERE   1 =   8.0293    (RMT=  2.4300 )
:PCS001: PARTIAL CHARGES SPHERE =  1 S,P,D,F,      D-EG,D-T2G 
:QTL001: 0.2563 3.2966 4.4328 0.0318 0.0000 0.0000 0.0000 1.8426 2.5903 0.0000 0.0000 0.0000
        Q-s-low E-s-low   Q-p-low E-p-low   Q-d-low E-d-low   Q-f-low E-f-low
:EPL001:  0.0006 -2.6147    2.9950 -3.1580    0.0014 -2.6103    0.0006 -2.6110
        Q-s-hi  E-s-hi    Q-p-hi  E-p-hi    Q-d-hi  E-d-hi    Q-f-hi  E-f-hi 
:EPH001:  0.2558  0.3427    0.3016  0.5011    4.4314  0.6375    0.0313  0.5920

:POS002: ATOM    2 X,Y,Z = 0.50000 0.00000 0.00000  MULT= 1  ZZ= 26.000  Fe2       

       LMMAX  5
       LM=   0 0  4 0  4 4  6 0  6 4

:CHA002: TOTAL VALENCE CHARGE INSIDE SPHERE   2 =   8.0293    (RMT=  2.4300 )
:PCS002: PARTIAL CHARGES SPHERE =  2 S,P,D,F,      D-EG,D-T2G 
:QTL002: 0.2563 3.2966 4.4328 0.0318 0.0000 0.0000 0.0000 1.8426 2.5903 0.0000 0.0000 0.0000
        Q-s-low E-s-low   Q-p-low E-p-low   Q-d-low E-d-low   Q-f-low E-f-low
:EPL002:  0.0006 -2.6147    2.9950 -3.1580    0.0014 -2.6103    0.0006 -2.6110
        Q-s-hi  E-s-hi    Q-p-hi  E-p-hi    Q-d-hi  E-d-hi    Q-f-hi  E-f-hi 
:EPH002:  0.2558  0.3427    0.3016  0.5011    4.4314  0.6375    0.0313  0.5920

:POS003: ATOM    3 X,Y,Z = 0.25000 0.25000 0.25000  MULT= 2  ZZ= 45.000  Rh1       

       LMMAX  6
       LM=   0 0  4 0  4 4  6 0  6 4 -3 2

:CHA003: TOTAL VALENCE CHARGE INSIDE SPHERE   3 =   7.2950    (RMT=  2.4300 )
:PCS003: PARTIAL CHARGES SPHERE =  3 S,P,D,F,      D-EG,D-T2G 
:QTL003: 0.1917 3.1925 3.8751 0.0277 0.0000 0.0000 0.0000 1.5572 2.3178 0.0000 0.0000 0.0000
        Q-s-low E-s-low   Q-p-low E-p-low   Q-d-low E-d-low   Q-f-low E-f-low
:EPL003:  0.0002 -3.0688    2.9783 -2.6059    0.0004 -3.0823    0.0002 -3.0797
        Q-s-hi  E-s-hi    Q-p-hi  E-p-hi    Q-d-hi  E-d-hi    Q-f-hi  E-f-hi 
:EPH003:  0.1916  0.3446    0.2142  0.5174    3.8747  0.5831    0.0275  0.6096

:CHA  : TOTAL VALENCE CHARGE INSIDE UNIT CELL =      33.302021

:SUM  : SUM OF EIGENVALUES =         -22.268759657



   QTL-B VALUE .EQ.    2.71234   in Band of energy    0.77735   ATOM=    3   L=  2
    Most likely no ghostbands, but adjust Energy-parameters for this ATOM and L


:WARN : QTL-B value eq.   2.71 in Band of energy   0.77735  ATOM=    3  L=  2
:WARN : You should change the E-parameter for this atom and L-value in case.in1 (or try the -in1new switch)
:GAP (global)   :    0.0    Ry =     0.0   eV (metal)
:GAP (this spin):    0.0    Ry =     0.0   eV (metal)
         Bandranges (emin - emax) and occupancy:
:BAN00017:  17    0.543307    0.641348  1.00000000
:BAN00018:  18    0.543307    0.643901  1.00000000
:BAN00019:  19    0.581674    0.709910  1.00000000
:BAN00020:  20    0.632003    0.714997  1.00000000
:BAN00021:  21    0.638650    0.714997  1.00000000
:BAN00022:  22    0.642630    0.776108  1.00000000
:BAN00023:  23    0.642630    0.805042  1.00000000
:BAN00024:  24    0.650581    0.817854  1.00000000
:BAN00025:  25    0.785560    0.876935  0.51569355
:BAN00026:  26    0.817063    0.884444  0.17721495
:BAN00027:  27    0.826759    0.891269  0.00507051
:BAN00028:  28    0.844009    0.891269  0.00000000
:BAN00029:  29    0.866271    0.929874  0.00000000
:BAN00030:  30    0.878784    0.941073  0.00000000
:BAN00031:  31    0.881653    0.968551  0.00000000
:BAN00032:  32    0.906083    0.968551  0.00000000
        Energy to separate low and high energystates:    0.16859


:NOE  : NUMBER OF ELECTRONS          =   58.000

:FER  : F E R M I - ENERGY(TETRAH.M.)=   0.8325606025
:GMA  : POTENTIAL AND CHARGE CUT-OFF  12.00 Ry**.5

:POS001: ATOM    1 X,Y,Z = 0.00000 0.00000 0.00000  MULT= 1  ZZ= 26.000  Fe1       

       LMMAX  5
       LM=   0 0  4 0  4 4  6 0  6 4

:CHA001: TOTAL VALENCE CHARGE INSIDE SPHERE   1 =   5.0649    (RMT=  2.4300 )
:PCS001: PARTIAL CHARGES SPHERE =  1 S,P,D,F,      D-EG,D-T2G 
:QTL001: 0.2345 3.2564 1.5435 0.0230 0.0000 0.0000 0.0000 0.4833 1.0601 0.0000 0.0000 0.0000
        Q-s-low E-s-low   Q-p-low E-p-low   Q-d-low E-d-low   Q-f-low E-f-low
:EPL001:  0.0005 -2.5131    2.9947 -2.9686    0.0013 -2.5089    0.0006 -2.5092
        Q-s-hi  E-s-hi    Q-p-hi  E-p-hi    Q-d-hi  E-d-hi    Q-f-hi  E-f-hi 
:EPH001:  0.2339  0.4544    0.2617  0.6094    1.5422  0.6705    0.0225  0.6629

:POS002: ATOM    2 X,Y,Z = 0.50000 0.00000 0.00000  MULT= 1  ZZ= 26.000  Fe2       

       LMMAX  5
       LM=   0 0  4 0  4 4  6 0  6 4

:CHA002: TOTAL VALENCE CHARGE INSIDE SPHERE   2 =   5.0649    (RMT=  2.4300 )
:PCS002: PARTIAL CHARGES SPHERE =  2 S,P,D,F,      D-EG,D-T2G 
:QTL002: 0.2345 3.2564 1.5435 0.0230 0.0000 0.0000 0.0000 0.4833 1.0601 0.0000 0.0000 0.0000
        Q-s-low E-s-low   Q-p-low E-p-low   Q-d-low E-d-low   Q-f-low E-f-low
:EPL002:  0.0005 -2.5131    2.9947 -2.9686    0.0013 -2.5089    0.0006 -2.5092
        Q-s-hi  E-s-hi    Q-p-hi  E-p-hi    Q-d-hi  E-d-hi    Q-f-hi  E-f-hi 
:EPH002:  0.2339  0.4544    0.2617  0.6094    1.5422  0.6705    0.0225  0.6629

:POS003: ATOM    3 X,Y,Z = 0.25000 0.25000 0.25000  MULT= 2  ZZ= 45.000  Rh1       

       LMMAX  6
       LM=   0 0  4 0  4 4  6 0  6 4 -3 2

:CHA003: TOTAL VALENCE CHARGE INSIDE SPHERE   3 =   6.1211    (RMT=  2.4300 )
:PCS003: PARTIAL CHARGES SPHERE =  3 S,P,D,F,      D-EG,D-T2G 
:QTL003: 0.1860 3.1659 2.7507 0.0152 0.0000 0.0000 0.0000 0.8963 1.8544 0.0000 0.0000 0.0000
        Q-s-low E-s-low   Q-p-low E-p-low   Q-d-low E-d-low   Q-f-low E-f-low
:EPL003:  0.0002 -2.9032    2.9791 -2.5047    0.0004 -2.9111    0.0002 -2.9072
        Q-s-hi  E-s-hi    Q-p-hi  E-p-hi    Q-d-hi  E-d-hi    Q-f-hi  E-f-hi 
:EPH003:  0.1858  0.4746    0.1868  0.6346    2.7503  0.6235    0.0150  0.6816

:CHA  : TOTAL VALENCE CHARGE INSIDE UNIT CELL =      24.697979

:SUM  : SUM OF EIGENVALUES =         -25.016266663



   QTL-B VALUE .EQ.    2.68154   in Band of energy    0.80504   ATOM=    3   L=  2
    Most likely no ghostbands, but adjust Energy-parameters for this ATOM and L


:WARN : QTL-B value eq.   2.68 in Band of energy   0.80504  ATOM=    3  L=  2
:WARN : You should change the E-parameter for this atom and L-value in case.in1 (or try the -in1new switch)

        1.ATOM      Fe1                   5 CORE STATES
:1S 001: 1S                -512.918296422 Ry
:2S 001: 2S                 -58.867098991 Ry
:2PP001: 2P*                -50.560163463 Ry
:2P 001: 2P                 -49.643551060 Ry
:3S 001: 3S                  -5.645944693 Ry

        2.ATOM      Fe2                   5 CORE STATES
:1S 002: 1S                -512.918296422 Ry
:2S 002: 2S                 -58.867098991 Ry
:2PP002: 2P*                -50.560163463 Ry
:2P 002: 2P                 -49.643551060 Ry
:3S 002: 3S                  -5.645944693 Ry

        3.ATOM      Rh1                  10 CORE STATES
:1S 003: 1S               -1691.217931711 Ry
:2S 003: 2S                -244.120073391 Ry
:2PP003: 2P*               -225.926914533 Ry
:2P 003: 2P                -215.298232992 Ry
:3S 003: 3S                 -42.657850310 Ry
:3PP003: 3P*                -35.540511067 Ry
:3P 003: 3P                 -33.712000604 Ry
:3DD003: 3D*                -21.116674177 Ry
:3D 003: 3D                 -20.756126950 Ry
:4S 003: 4S                  -4.950238540 Ry

        1.ATOM      Fe1                   5 CORE STATES
:1S 001: 1S                -512.917485201 Ry
:2S 001: 2S                 -58.785188684 Ry
:2PP001: 2P*                -50.499094941 Ry
:2P 001: 2P                 -49.580706911 Ry
:3S 001: 3S                  -5.453831662 Ry

        2.ATOM      Fe2                   5 CORE STATES
:1S 002: 1S                -512.917485201 Ry
:2S 002: 2S                 -58.785188684 Ry
:2PP002: 2P*                -50.499094941 Ry
:2P 002: 2P                 -49.580706911 Ry
:3S 002: 3S                  -5.453831662 Ry

        3.ATOM      Rh1                  10 CORE STATES
:1S 003: 1S               -1691.216784672 Ry
:2S 003: 2S                -244.099243378 Ry
:2PP003: 2P*               -225.911752519 Ry
:2P 003: 2P                -215.282016486 Ry
:3S 003: 3S                 -42.646082589 Ry
:3PP003: 3P*                -35.526934971 Ry
:3P 003: 3P                 -33.698849186 Ry
:3DD003: 3D*                -21.096779061 Ry
:3D 003: 3D                 -20.736291231 Ry
:4S 003: 4S                  -4.855803339 Ry
:CINT001 Core Integral Atom   1 Up    5.999606 Dn   5.999592 Total  11.999198
:CINT002 Core Integral Atom   2 Up    5.999606 Dn   5.999592 Total  11.999198
:CINT003 Core Integral Atom   3 Up   14.998594 Dn  14.998639 Total  29.997233

       DENSITY AT NUCLEUS
        JATOM        VALENCE       SEMI-CORE          CORE           TOTAL
:RTO001:   1        7.295589        0.000000    15301.555248    15308.850837
:RTO002:   2        7.295589        0.000000    15301.555248    15308.850837
:RTO003:   3       24.727771        0.000000   155310.158130   155334.885902

       HYPERFINE FIELDS FOR THOMSON RADIUS
:HFF001:          161.412           0.000        -305.113        -143.701 (KGAUSS)
:HFF002:          161.412           0.000        -305.113        -143.701 (KGAUSS)
:HFF003:          103.965           0.000        -464.654        -360.689 (KGAUSS)
     
       CHARGES OF NEW CHARGE DENSITY
:NTO   : INTERSTITIAL     UP =     2.653332 DN =     2.326129 TOT =     4.979461
:NPC   : PW Pseudocharge  UP =     6.391273 DN =     5.180741 TOT =    11.572014
:NTO001: CHARGE SPHERE  1 UP =    14.028920 DN =    11.064450 TOT =    25.093370
:NTO002: CHARGE SPHERE  2 UP =    14.028920 DN =    11.064450 TOT =    25.093369
:NTO003: CHARGE SPHERE  3 UP =    22.293606 DN =    21.119692 TOT =    43.413298

:NEC01: NUCLEAR AND ELECTRONIC CHARGE    142.00000   141.99280
     
       CHARGES OF OLD CHARGE DENSITY
:OTO   : INTERSTITIAL     UP =     2.697579 DN =     1.107042 TOT =     3.804621
:OPC   : PW Pseudocharge  UP =    12.529935 DN =     6.327856 TOT =    18.857791
:OTO001: CHARGE SPHERE  1 UP =    14.100211 DN =    11.156686 TOT =    25.256897
:OTO002: CHARGE SPHERE  2 UP =    14.100211 DN =    11.156686 TOT =    25.256897
:OTO003: CHARGE SPHERE  3 UP =    23.052245 DN =    20.790329 TOT =    43.842573

:NEC02: NUCLEAR AND ELECTRONIC CHARGE    142.00000   142.00356
     
       CONVERGENCE TEST
:DTO001: DIFFERENCE SPHERE  1 UP =  0.0599147 DN =  0.6236937 TOT =  0.6836084
:DTO002: DIFFERENCE SPHERE  2 UP =  0.0599148 DN =  0.6236937 TOT =  0.6836085
:DTO003: DIFFERENCE SPHERE  3 UP =  0.5542461 DN =  0.2410905 TOT =  0.7953366

:DIS  :  CHARGE DISTANCE       ( 0.6236937 for atom    2 spin 2)      1.4789451
 PW Mixed is           49
 
******************************************************
* MULTISECANT MIXING VER9 RELEASE 10.4.0              *
* Standard Mode with controls                        *
* Fixed density scale                                *
* Regularization       1.000E-04                     *
* Trust Upper Limit    5.000E+00                     *
* Max Number of Memory Steps    8                    *
******************************************************
 
:PWTMP   1.1765E+02  4.5917E+02  3.5807E+02
:PLANE:  PW TOTAL      4.4201 DISTAN   2.85E+00  6.46E+01 %
:CHARG:  CLM/ATOM    212.0506 DISTAN   4.31E-01  2.03E-01 %
INFO: Reducing dbase  2.50000E-02 1.47895E+00 2.05572E-02
 
Step History
        DMIX         DMIXT        Red     Pred      Trust     Lambda    MagRel    MagAbs     Beta
  1   3.5000E-02   3.5000E-02 -1.00E+00  1.00E+00 -1.00E+01  1.00E+00  3.50E-02  3.50E-02  1.00E+00
:INFO :  Note, Pratt in use
INFO: Reducing dbase  2.05572E-02 1.47895E+00 1.69039E-02
:TRUST:  Step 3.06E-02  Charge 7.50E-02 (e) CTO  2.50E-01 (e) PW  3.50E-01 (e)
:DIRM :  MEMORY  0/ 8 SCALE   1.000
Performing Pseudo Compensation
Final Pseudo Compensation Rescaling     9.99098E-01
Final Pseudo Compensation Rescaling     9.96405E-01
:MIX  :   PRATT  REGULARIZATION:  1.00E-04 GREED: 0.02039                  
     
       CHARGES OF MIXED CHARGE DENSITY
:CTO   : INTERSTITIAL     UP =     2.694282 DN =     1.130947 TOT =     3.825229
:CPC   : PW Pseudocharge  UP =     8.737073 DN =     4.893520 TOT =    13.630593
:CTO001: CHARGE SPHERE  1 UP =    14.098758 DN =    11.154805 TOT =    25.253563
:CTO002: CHARGE SPHERE  2 UP =    14.098758 DN =    11.154805 TOT =    25.253563
:CTO003: CHARGE SPHERE  3 UP =    23.036779 DN =    20.797043 TOT =    43.833822

       SPIN MAGNETIC MOMENTS OF MIXED CHARGE DENSITY
:MMINT:  MAGNETIC MOMENT IN INTERSTITIAL  =    1.56333
:MMI001: MAGNETIC MOMENT IN SPHERE   1    =    2.94395
:MMI002: MAGNETIC MOMENT IN SPHERE   2    =    2.94395
:MMI003: MAGNETIC MOMENT IN SPHERE   3    =    2.23974
:MMTOT:  SPIN MAGNETIC MOMENT IN CELL     =   11.93071

:NEC03: NUCLEAR AND ELECTRONIC CHARGE    142.00000   142.00000

PW CHANGE     H    K    L      Current       Change    Residue
:PUP001:      0    0    0  3.19248840E-02 -1.056E-02 -1.719E-02
:PUP003:      0    0   -2 -1.61654398E-02  1.271E-02  2.310E-02
:PUP004:      0   -2   -2  1.91248638E-02 -6.852E-02 -8.829E-02
:PUP006:     -2   -2   -2  7.22443592E-04  9.212E-03  1.067E-02
:PUP007:      0    0   -4 -7.38054662E-03 -1.732E-02 -1.699E-02
:PUP009:      0   -2   -4  1.03814480E-02  1.341E-02  8.585E-03
:PUP010:     -2   -2   -4 -2.54579143E-02 -3.150E-02 -1.865E-02
:PUP013:      0   -4   -4 -6.66697553E-03 -5.897E-03 -5.792E-04
:PUP015:     -2   -4   -4  3.33354727E-03  1.061E-03 -1.663E-03
:PUP016:      0    0   -6  8.34970525E-04  2.667E-04 -3.380E-04
:PUP017:      0   -2   -6 -4.57082594E-03 -2.487E-03  2.870E-03
:PUP019:     -2   -2   -6  7.55197361E-04 -7.562E-04 -1.477E-03
  
:PDN001:      0    0    0  1.68248129E-02 -3.920E-03  2.508E-04
:PDN003:      0    0   -2 -9.94123452E-03  8.890E-03  1.178E-02
:PDN004:      0   -2   -2  1.68019755E-02 -3.137E-02 -5.043E-02
:PDN006:     -2   -2   -2  6.75625267E-04  5.543E-03  6.985E-03
:PDN007:      0    0   -4 -4.47879294E-03 -8.898E-03 -1.008E-02
:PDN009:      0   -2   -4  8.90410995E-03  6.314E-03  4.131E-03
:PDN010:     -2   -2   -4 -1.86497549E-02 -1.709E-02 -5.261E-03
:PDN013:      0   -4   -4 -5.26600986E-03 -3.041E-03  1.734E-03
:PDN015:     -2   -4   -4  3.11508145E-03 -8.976E-04 -3.808E-03
:PDN016:      0    0   -6  7.87615079E-04 -2.156E-04 -5.181E-04
:PDN017:      0   -2   -6 -3.63957830E-03 -4.192E-04  2.448E-03
:PDN019:     -2   -2   -6  8.05516106E-04 -1.463E-03 -2.219E-03

:ENE  : *WARNING** TOTAL ENERGY IN Ry =       -24232.19478356

 Flat Integration
 New Mode for Coulomb Integral
 Consistent 3/8+Simpson combinations
 Extension of core to zero
 LDM version in phi
 Fifth-order quadrature in outwin


            ---------
:ITE002:  2. ITERATION
            ---------

:NATO :    3 INDEPENDENT AND    4 TOTAL ATOMS IN UNITCELL
       SUBSTANCE: FeRh                                                        

       LATTICE                      = F   
:POT  : POTENTIAL OPTION EX_PBE EC_PBE VX_PBE VC_PBE
:LAT  : LATTICE CONSTANTS= 11.27222 11.27222 11.27222    1.571    1.571    1.571
:VOL  : UNIT CELL VOLUME =     358.07036
       MODE OF CALCULATION IS       = RELA
       SPINPOLARIZED CALCULATION
:IFFT  : FFT-parameters:   90   90   90 Factor: 2.00


   CONVERGENCE PARAMETER FOR PSEUDOCHARGE: NCON=  9
   MAXIMAL VALUE OF RMT(JATOM)*ABSK(NKK) : RK  =29.05063


:VKCOUL :  VK-COUL convergence: 0.474E-07
       ATOMNUMBER=  1 Fe1        VCOUL-ZERO =  0.62916E+00
       ATOMNUMBER=  2 Fe2        VCOUL-ZERO =  0.62916E+00
       ATOMNUMBER=  3 Rh1        VCOUL-ZERO =  0.60017E+00
:FIT001: LUSE= 13 SIGMA OF V-XC FIT FOR ATOM  1  0.7073231E-02
:FIT001: LUSE= 13 SIGMA OF V-XC FIT FOR ATOM  1  0.1867538E-02
:FIT002: LUSE= 13 SIGMA OF V-XC FIT FOR ATOM  2  0.7073231E-02
:FIT002: LUSE= 13 SIGMA OF V-XC FIT FOR ATOM  2  0.1867538E-02
:FIT003: LUSE= 13 SIGMA OF V-XC FIT FOR ATOM  3  0.1434909E-02
:FIT003: LUSE= 13 SIGMA OF V-XC FIT FOR ATOM  3  0.3306565E-03
:DEN  : DENSITY INTEGRAL  =         -9883.60799886   (Ry)
       ELS_POTENTIAL_AT Z=0 and Z=0.5:  -0.21231  -0.21231
       ELS_POTENTIAL_AT Y=0 and Y=0.5:   0.00000   0.00000
:VZERO:v0,v0c,v0x  -0.88664  -0.21231  -0.67433 v5,v5c,v5x  -0.88664  -0.21231  -0.67433
:VZERY:v0,v0c,v0x  -0.86847   0.00000  -0.86847 v5,v5c,v5x  -0.86847   0.00000  -0.86847
:VZERX:v0,v0c,v0x  -0.86847   0.00000  -0.86847 v5,v5c,v5x  -0.86847   0.00000  -0.86847
:LMAX-WF:   10   Non-Spherical LMAX:   4

          ATOMIC SPHERE DEPENDENT PARAMETERS FOR ATOM  Fe1       
:e__0001: OVERALL ENERGY PARAMETER IS    0.5000
          OVERALL BASIS SET ON ATOM IS LAPW
:E1_0001: E( 1)=    0.5000
             APW+lo
:E1_0001: E( 1)=   -3.2055   E(BOTTOM)=   -3.238   E(TOP)=   -3.173  1  2   178
             LOCAL ORBITAL
:E2_0001: E( 2)=    0.5767   E(BOTTOM)=    0.334   E(TOP)=    0.820  0  1   127
             APW+lo
:E0_0001: E( 0)=    0.5000
             APW+lo

          ATOMIC SPHERE DEPENDENT PARAMETERS FOR ATOM  Fe2       
:e__0002: OVERALL ENERGY PARAMETER IS    0.5000
          OVERALL BASIS SET ON ATOM IS LAPW
:E1_0002: E( 1)=    0.5000
             APW+lo
:E1_0002: E( 1)=   -3.2055   E(BOTTOM)=   -3.238   E(TOP)=   -3.173  1  2   177
             LOCAL ORBITAL
:E2_0002: E( 2)=    0.5767   E(BOTTOM)=    0.334   E(TOP)=    0.820  0  1   127
             APW+lo
:E0_0002: E( 0)=    0.5000
             APW+lo

          ATOMIC SPHERE DEPENDENT PARAMETERS FOR ATOM  Rh1       
:e__0003: OVERALL ENERGY PARAMETER IS    0.5000
          OVERALL BASIS SET ON ATOM IS LAPW
:E1_0003: E( 1)=    0.5000
             APW+lo
:E1_0003: E( 1)=   -2.6651   E(BOTTOM)=   -2.765   E(TOP)=   -2.565  2  3   162
             LOCAL ORBITAL
:E2_0003: E( 2)=    0.5000   E(BOTTOM)=    0.128   E(TOP)= -200.000  1 -1    94
             APW+lo
:E0_0003: E( 0)=    0.5000
             APW+lo

       K=   0.00000   0.00000   0.00000            1
:RKM  : MATRIX SIZE   185LOs:  48  RKM= 6.64  WEIGHT= 1.00  PGR:    
       EIGENVALUES ARE:
:EIG00001:      -3.1995146   -3.1995146   -3.1995146   -3.1976789   -3.1976789
:EIG00006:      -3.1976789   -2.6479759   -2.6479759   -2.6479759   -2.6400334
:EIG00011:      -2.6400334   -2.6400334    0.0373967    0.3052297    0.3052297
:EIG00016:       0.3779904    0.3779904    0.3779904    0.5020806    0.5020806
:EIG00021:       0.5020806    0.5372974    0.5372974    0.5372974    0.6769147
:EIG00026:       0.6769147    0.6893064    0.6893064    0.7394724    0.7394724
:EIG00031:       0.7726513    0.7726513    0.7726513    1.2247659    1.2885368
:EIG00036:       1.2885368    1.2885368    1.2972562    1.2972562    1.2972562
:EIG00041:       1.4136517    1.4136517    1.4136517    1.4657250    1.9623851
:EIG00046:       1.9623851    2.0428153    2.1180867    2.1180867    2.1180867
 
       ********************************************************

:KPT   :      NUMBER OF K-POINTS:   286
:LMAX-WF:   10   Non-Spherical LMAX:   4

          ATOMIC SPHERE DEPENDENT PARAMETERS FOR ATOM  Fe1       
:e__0001: OVERALL ENERGY PARAMETER IS    0.5000
          OVERALL BASIS SET ON ATOM IS LAPW
:E1_0001: E( 1)=    0.5000
             APW+lo
:E1_0001: E( 1)=   -3.0155   E(BOTTOM)=   -3.049   E(TOP)=   -2.982  1  2   194
             LOCAL ORBITAL
:E2_0001: E( 2)=    0.5053   E(BOTTOM)=    0.505   E(TOP)= -200.000  0 -1    75
             APW+lo
:E0_0001: E( 0)=    0.5000
             APW+lo

          ATOMIC SPHERE DEPENDENT PARAMETERS FOR ATOM  Fe2       
:e__0002: OVERALL ENERGY PARAMETER IS    0.5000
          OVERALL BASIS SET ON ATOM IS LAPW
:E1_0002: E( 1)=    0.5000
             APW+lo
:E1_0002: E( 1)=   -3.0155   E(BOTTOM)=   -3.049   E(TOP)=   -2.982  1  2   194
             LOCAL ORBITAL
:E2_0002: E( 2)=    0.5053   E(BOTTOM)=    0.505   E(TOP)= -200.000  0 -1    75
             APW+lo
:E0_0002: E( 0)=    0.5000
             APW+lo

          ATOMIC SPHERE DEPENDENT PARAMETERS FOR ATOM  Rh1       
:e__0003: OVERALL ENERGY PARAMETER IS    0.5000
          OVERALL BASIS SET ON ATOM IS LAPW
:E1_0003: E( 1)=    0.5000
             APW+lo
:E1_0003: E( 1)=   -2.5645   E(BOTTOM)=   -2.663   E(TOP)=   -2.466  2  3   178
             LOCAL ORBITAL
:E2_0003: E( 2)=    0.5000   E(BOTTOM)=    0.243   E(TOP)= -200.000  1 -1    87
             APW+lo
:E0_0003: E( 0)=    0.5000
             APW+lo

       K=   0.00000   0.00000   0.00000            1
:RKM  : MATRIX SIZE   185LOs:  48  RKM= 6.64  WEIGHT= 1.00  PGR:    
       EIGENVALUES ARE:
:EIG00001:      -3.0093066   -3.0093066   -3.0093066   -3.0074177   -3.0074177
:EIG00006:      -3.0074177   -2.5474928   -2.5474928   -2.5474928   -2.5395662
:EIG00011:      -2.5395662   -2.5395662    0.1924205    0.4487981    0.4487981
:EIG00016:       0.5114648    0.5114648    0.5114648    0.6763091    0.6763091
:EIG00021:       0.6763091    0.6820542    0.6820542    0.6820542    0.8395257
:EIG00026:       0.8395257    0.8521347    0.8521347    0.8766957    0.8766957
:EIG00031:       0.9292058    0.9292058    0.9292058    1.3797448    1.4525631
:EIG00036:       1.4525631    1.4525631    1.4704119    1.4704119    1.4704119
:EIG00041:       1.5572149    1.5572149    1.5572149    1.5992534    2.1761346
:EIG00046:       2.1761346    2.1839209
 
       ********************************************************

:KPT   :      NUMBER OF K-POINTS:   286
:GAP (global)   :    0.0    Ry =     0.0   eV (metal)
:GAP (this spin):    0.0    Ry =     0.0   eV (metal)
         Bandranges (emin - emax) and occupancy:
:BAN00025:  25    0.591721    0.676915  1.00000000
:BAN00026:  26    0.608391    0.684737  1.00000000
:BAN00027:  27    0.618630    0.689306  1.00000000
:BAN00028:  28    0.643920    0.690731  1.00000000
:BAN00029:  29    0.662291    0.739472  1.00000000
:BAN00030:  30    0.677546    0.739472  1.00000000
:BAN00031:  31    0.684791    0.772651  1.00000000
:BAN00032:  32    0.706285    0.772651  1.00000000
:BAN00033:  33    0.712765    0.791467  1.00000000
:BAN00034:  34    0.749796    1.227040  0.31474753
:BAN00035:  35    0.793335    1.288537  0.00033752
:BAN00036:  36    0.810396    1.288537  0.00000000
:BAN00037:  37    1.236745    1.458650  0.00000000
:BAN00038:  38    1.245555    1.560149  0.00000000
:BAN00039:  39    1.285937    1.765555  0.00000000
:BAN00040:  40    1.297256    1.773836  0.00000000
        Energy to separate low and high energystates:   -0.01260


:NOE  : NUMBER OF ELECTRONS          =   58.000

:FER  : F E R M I - ENERGY(TETRAH.M.)=   0.7960303666
:GMA  : POTENTIAL AND CHARGE CUT-OFF  12.00 Ry**.5

:POS001: ATOM    1 X,Y,Z = 0.00000 0.00000 0.00000  MULT= 1  ZZ= 26.000  Fe1       

       LMMAX  5
       LM=   0 0  4 0  4 4  6 0  6 4

:CHA001: TOTAL VALENCE CHARGE INSIDE SPHERE   1 =   8.0359    (RMT=  2.4300 )
:PCS001: PARTIAL CHARGES SPHERE =  1 S,P,D,F,      D-EG,D-T2G 
:QTL001: 0.2559 3.2948 4.4420 0.0316 0.0000 0.0000 0.0000 1.8437 2.5982 0.0000 0.0000 0.0000
        Q-s-low E-s-low   Q-p-low E-p-low   Q-d-low E-d-low   Q-f-low E-f-low
:EPL001:  0.0006 -2.6534    2.9951 -3.1983    0.0014 -2.6490    0.0006 -2.6496
        Q-s-hi  E-s-hi    Q-p-hi  E-p-hi    Q-d-hi  E-d-hi    Q-f-hi  E-f-hi 
:EPH001:  0.2554  0.3090    0.2998  0.4663    4.4406  0.5995    0.0310  0.5558

:POS002: ATOM    2 X,Y,Z = 0.50000 0.00000 0.00000  MULT= 1  ZZ= 26.000  Fe2       

       LMMAX  5
       LM=   0 0  4 0  4 4  6 0  6 4

:CHA002: TOTAL VALENCE CHARGE INSIDE SPHERE   2 =   8.0359    (RMT=  2.4300 )
:PCS002: PARTIAL CHARGES SPHERE =  2 S,P,D,F,      D-EG,D-T2G 
:QTL002: 0.2559 3.2948 4.4420 0.0316 0.0000 0.0000 0.0000 1.8437 2.5982 0.0000 0.0000 0.0000
        Q-s-low E-s-low   Q-p-low E-p-low   Q-d-low E-d-low   Q-f-low E-f-low
:EPL002:  0.0006 -2.6534    2.9951 -3.1983    0.0014 -2.6490    0.0006 -2.6496
        Q-s-hi  E-s-hi    Q-p-hi  E-p-hi    Q-d-hi  E-d-hi    Q-f-hi  E-f-hi 
:EPH002:  0.2554  0.3090    0.2998  0.4663    4.4406  0.5995    0.0310  0.5558

:POS003: ATOM    3 X,Y,Z = 0.25000 0.25000 0.25000  MULT= 2  ZZ= 45.000  Rh1       

       LMMAX  6
       LM=   0 0  4 0  4 4  6 0  6 4 -3 2

:CHA003: TOTAL VALENCE CHARGE INSIDE SPHERE   3 =   7.3026    (RMT=  2.4300 )
:PCS003: PARTIAL CHARGES SPHERE =  3 S,P,D,F,      D-EG,D-T2G 
:QTL003: 0.1911 3.1910 3.8852 0.0274 0.0000 0.0000 0.0000 1.5602 2.3250 0.0000 0.0000 0.0000
        Q-s-low E-s-low   Q-p-low E-p-low   Q-d-low E-d-low   Q-f-low E-f-low
:EPL003:  0.0002 -3.1092    2.9784 -2.6446    0.0004 -3.1226    0.0002 -3.1207
        Q-s-hi  E-s-hi    Q-p-hi  E-p-hi    Q-d-hi  E-d-hi    Q-f-hi  E-f-hi 
:EPH003:  0.1909  0.3105    0.2125  0.4823    3.8848  0.5473    0.0272  0.5723

:CHA  : TOTAL VALENCE CHARGE INSIDE UNIT CELL =      33.315085

:SUM  : SUM OF EIGENVALUES =         -23.510614719

:GAP (global)   :    0.0    Ry =     0.0   eV (metal)
:GAP (this spin):    0.0    Ry =     0.0   eV (metal)
         Bandranges (emin - emax) and occupancy:
:BAN00017:  17    0.511465    0.608775  1.00000000
:BAN00018:  18    0.511465    0.609181  1.00000000
:BAN00019:  19    0.549288    0.676309  1.00000000
:BAN00020:  20    0.598216    0.680360  1.00000000
:BAN00021:  21    0.604317    0.680360  1.00000000
:BAN00022:  22    0.608047    0.739580  1.00000000
:BAN00023:  23    0.608047    0.767573  1.00000000
:BAN00024:  24    0.616765    0.785840  1.00000000
:BAN00025:  25    0.753036    0.839526  0.51129100
:BAN00026:  26    0.782352    0.846012  0.17009118
:BAN00027:  27    0.791344    0.852135  0.00353277
:BAN00028:  28    0.807566    0.853168  0.00000000
:BAN00029:  29    0.829092    0.891417  0.00000000
:BAN00030:  30    0.841711    0.902980  0.00000000
:BAN00031:  31    0.843458    0.929206  0.00000000
:BAN00032:  32    0.868463    0.929206  0.00000000
        Energy to separate low and high energystates:    0.14242


:NOE  : NUMBER OF ELECTRONS          =   58.000

:FER  : F E R M I - ENERGY(TETRAH.M.)=   0.7960303666
:GMA  : POTENTIAL AND CHARGE CUT-OFF  12.00 Ry**.5

:POS001: ATOM    1 X,Y,Z = 0.00000 0.00000 0.00000  MULT= 1  ZZ= 26.000  Fe1       

       LMMAX  5
       LM=   0 0  4 0  4 4  6 0  6 4

:CHA001: TOTAL VALENCE CHARGE INSIDE SPHERE   1 =   5.0613    (RMT=  2.4300 )
:PCS001: PARTIAL CHARGES SPHERE =  1 S,P,D,F,      D-EG,D-T2G 
:QTL001: 0.2331 3.2500 1.5482 0.0225 0.0000 0.0000 0.0000 0.4854 1.0629 0.0000 0.0000 0.0000
        Q-s-low E-s-low   Q-p-low E-p-low   Q-d-low E-d-low   Q-f-low E-f-low
:EPL001:  0.0005 -2.5525    2.9948 -3.0081    0.0013 -2.5483    0.0006 -2.5485
        Q-s-hi  E-s-hi    Q-p-hi  E-p-hi    Q-d-hi  E-d-hi    Q-f-hi  E-f-hi 
:EPH001:  0.2326  0.4260    0.2552  0.5770    1.5470  0.6367    0.0220  0.6283

:POS002: ATOM    2 X,Y,Z = 0.50000 0.00000 0.00000  MULT= 1  ZZ= 26.000  Fe2       

       LMMAX  5
       LM=   0 0  4 0  4 4  6 0  6 4

:CHA002: TOTAL VALENCE CHARGE INSIDE SPHERE   2 =   5.0613    (RMT=  2.4300 )
:PCS002: PARTIAL CHARGES SPHERE =  2 S,P,D,F,      D-EG,D-T2G 
:QTL002: 0.2331 3.2500 1.5482 0.0225 0.0000 0.0000 0.0000 0.4854 1.0629 0.0000 0.0000 0.0000
        Q-s-low E-s-low   Q-p-low E-p-low   Q-d-low E-d-low   Q-f-low E-f-low
:EPL002:  0.0005 -2.5525    2.9948 -3.0081    0.0013 -2.5483    0.0006 -2.5485
        Q-s-hi  E-s-hi    Q-p-hi  E-p-hi    Q-d-hi  E-d-hi    Q-f-hi  E-f-hi 
:EPH002:  0.2326  0.4260    0.2552  0.5770    1.5470  0.6367    0.0220  0.6283

:POS003: ATOM    3 X,Y,Z = 0.25000 0.25000 0.25000  MULT= 2  ZZ= 45.000  Rh1       

       LMMAX  6
       LM=   0 0  4 0  4 4  6 0  6 4 -3 2

:CHA003: TOTAL VALENCE CHARGE INSIDE SPHERE   3 =   6.1376    (RMT=  2.4300 )
:PCS003: PARTIAL CHARGES SPHERE =  3 S,P,D,F,      D-EG,D-T2G 
:QTL003: 0.1852 3.1615 2.7728 0.0148 0.0000 0.0000 0.0000 0.9084 1.8644 0.0000 0.0000 0.0000
        Q-s-low E-s-low   Q-p-low E-p-low   Q-d-low E-d-low   Q-f-low E-f-low
:EPL003:  0.0002 -2.9430    2.9793 -2.5441    0.0004 -2.9508    0.0002 -2.9471
        Q-s-hi  E-s-hi    Q-p-hi  E-p-hi    Q-d-hi  E-d-hi    Q-f-hi  E-f-hi 
:EPH003:  0.1850  0.4457    0.1822  0.6024    2.7724  0.5898    0.0146  0.6473

:CHA  : TOTAL VALENCE CHARGE INSIDE UNIT CELL =      24.684915

:SUM  : SUM OF EIGENVALUES =         -25.913988641



   QTL-B VALUE .EQ.    2.66655   in Band of energy    0.80123   ATOM=    1   L=  2
    Most likely no ghostbands, but adjust Energy-parameters for this ATOM and L


:WARN : QTL-B value eq.   2.67 in Band of energy   0.80123  ATOM=    1  L=  2
:WARN : You should change the E-parameter for this atom and L-value in case.in1 (or try the -in1new switch)

        1.ATOM      Fe1                   5 CORE STATES
:1S 001: 1S                -512.965732713 Ry
:2S 001: 2S                 -58.914114025 Ry
:2PP001: 2P*                -50.607307228 Ry
:2P 001: 2P                 -49.690681081 Ry
:3S 001: 3S                  -5.686803769 Ry

        2.ATOM      Fe2                   5 CORE STATES
:1S 002: 1S                -512.965732719 Ry
:2S 002: 2S                 -58.914114030 Ry
:2PP002: 2P*                -50.607307233 Ry
:2P 002: 2P                 -49.690681086 Ry
:3S 002: 3S                  -5.686803772 Ry

        3.ATOM      Rh1                  10 CORE STATES
:1S 003: 1S               -1691.265771070 Ry
:2S 003: 2S                -244.167292303 Ry
:2PP003: 2P*               -225.974314122 Ry
:2P 003: 2P                -215.345592984 Ry
:3S 003: 3S                 -42.702629026 Ry
:3PP003: 3P*                -35.585351291 Ry
:3P 003: 3P                 -33.756752490 Ry
:3DD003: 3D*                -21.161672448 Ry
:3D 003: 3D                 -20.801094126 Ry
:4S 003: 4S                  -4.989892451 Ry

        1.ATOM      Fe1                   5 CORE STATES
:1S 001: 1S                -512.964942893 Ry
:2S 001: 2S                 -58.831823171 Ry
:2PP001: 2P*                -50.545958820 Ry
:2P 001: 2P                 -49.627548442 Ry
:3S 001: 3S                  -5.493831984 Ry

        2.ATOM      Fe2                   5 CORE STATES
:1S 002: 1S                -512.964942898 Ry
:2S 002: 2S                 -58.831823176 Ry
:2PP002: 2P*                -50.545958825 Ry
:2P 002: 2P                 -49.627548447 Ry
:3S 002: 3S                  -5.493831987 Ry

        3.ATOM      Rh1                  10 CORE STATES
:1S 003: 1S               -1691.264651353 Ry
:2S 003: 2S                -244.146603329 Ry
:2PP003: 2P*               -225.959258449 Ry
:2P 003: 2P                -215.329489156 Ry
:3S 003: 3S                 -42.690962431 Ry
:3PP003: 3P*                -35.571887584 Ry
:3P 003: 3P                 -33.743711573 Ry
:3DD003: 3D*                -21.141927408 Ry
:3D 003: 3D                 -20.781408444 Ry
:4S 003: 4S                  -4.896122048 Ry
:CINT001 Core Integral Atom   1 Up    5.999609 Dn   5.999594 Total  11.999203
:CINT002 Core Integral Atom   2 Up    5.999609 Dn   5.999594 Total  11.999203
:CINT003 Core Integral Atom   3 Up   14.998603 Dn  14.998646 Total  29.997249

       DENSITY AT NUCLEUS
        JATOM        VALENCE       SEMI-CORE          CORE           TOTAL
:RTO001:   1        7.265054        0.000000    15301.699734    15308.964788
:RTO002:   2        7.265054        0.000000    15301.699734    15308.964788
:RTO003:   3       24.624157        0.000000   155310.635584   155335.259741

       HYPERFINE FIELDS FOR THOMSON RADIUS
:HFF001:          160.660           0.000        -306.155        -145.495 (KGAUSS)
:HFF002:          160.660           0.000        -306.155        -145.495 (KGAUSS)
:HFF003:           92.912           0.000        -461.265        -368.353 (KGAUSS)
     
       CHARGES OF NEW CHARGE DENSITY
:NTO   : INTERSTITIAL     UP =     2.637968 DN =     2.287069 TOT =     4.925037
:NPC   : PW Pseudocharge  UP =     6.359471 DN =     5.152248 TOT =    11.511719
:NTO001: CHARGE SPHERE  1 UP =    14.035553 DN =    11.060944 TOT =    25.096497
:NTO002: CHARGE SPHERE  2 UP =    14.035553 DN =    11.060944 TOT =    25.096497
:NTO003: CHARGE SPHERE  3 UP =    22.301199 DN =    21.136205 TOT =    43.437404

:NEC01: NUCLEAR AND ELECTRONIC CHARGE    142.00000   141.99284
     
       CHARGES OF OLD CHARGE DENSITY
:OTO   : INTERSTITIAL     UP =     2.694282 DN =     1.130947 TOT =     3.825229
:OPC   : PW Pseudocharge  UP =     8.737073 DN =     4.893520 TOT =    13.630593
:OTO001: CHARGE SPHERE  1 UP =    14.098758 DN =    11.154805 TOT =    25.253563
:OTO002: CHARGE SPHERE  2 UP =    14.098758 DN =    11.154805 TOT =    25.253563
:OTO003: CHARGE SPHERE  3 UP =    23.036779 DN =    20.797043 TOT =    43.833822

:NEC02: NUCLEAR AND ELECTRONIC CHARGE    142.00000   142.00000
     
       CONVERGENCE TEST
:DTO001: DIFFERENCE SPHERE  1 UP =  0.0498312 DN =  0.5957178 TOT =  0.6455490
:DTO002: DIFFERENCE SPHERE  2 UP =  0.0498312 DN =  0.5957178 TOT =  0.6455490
:DTO003: DIFFERENCE SPHERE  3 UP =  0.5147389 DN =  0.2158952 TOT =  0.7306341

:DIS  :  CHARGE DISTANCE       ( 0.5957178 for atom    2 spin 2)      1.3761831
 PW Mixed is           49
 
******************************************************
* MULTISECANT MIXING VER9 RELEASE 10.4.0              *
* Slow Mode, cautious                                *
* Fixed density scale                                *
* Regularization       1.000E-04                     *
* Step Trust Radius    0.75000                       *
* Trust Upper Limit    2.000E+00                     *
* Max Number of Memory Steps   12                    *
******************************************************
 
:PWTMP   1.1765E+02  4.5917E+02  3.5807E+02
:PLANE:  PW TOTAL      2.9661 DISTAN   9.83E-01  3.31E+01 %
:CHARG:  CLM/ATOM    212.0495 DISTAN   4.06E-01  1.91E-01 %
INFO: Reducing dbase  1.00000E-02 1.37618E+00 8.52436E-03
 
Step History
        DMIX         DMIXT        Red     Pred      Trust     Lambda    MagRel    MagAbs     Beta
  1   3.5000E-02   3.5000E-02 -1.00E+00  1.00E+00 -1.00E+01  1.00E+00  3.50E-02  3.50E-02  1.00E+00
  2   2.0386E-02   2.0386E-02 -1.00E+00  1.00E+00 -1.00E+01  1.00E+00  2.04E-02  3.92E-02  1.00E+00
:JACOBIANS    4.954E-01   4.430E-04
  
:TRUST:  Step 2.80E-02  Charge 7.50E-02 (e) CTO  2.50E-01 (e) PW  3.50E-01 (e)
:DIRM :  MEMORY  1/12 SCALE   1.000
:MIX  :   PRATT  REGULARIZATION:  1.00E-04 GREED: 0.02798  Expand 1.37  0.0280                
     
       CHARGES OF MIXED CHARGE DENSITY
:CTO   : INTERSTITIAL     UP =     2.694016 DN =     1.139524 TOT =     3.833540
:CPC   : PW Pseudocharge  UP =     7.436930 DN =     4.402360 TOT =    11.839290
:CTO001: CHARGE SPHERE  1 UP =    14.098258 DN =    11.154159 TOT =    25.252417
:CTO002: CHARGE SPHERE  2 UP =    14.098258 DN =    11.154159 TOT =    25.252417
:CTO003: CHARGE SPHERE  3 UP =    23.031462 DN =    20.799352 TOT =    43.830813

       SPIN MAGNETIC MOMENTS OF MIXED CHARGE DENSITY
:MMINT:  MAGNETIC MOMENT IN INTERSTITIAL  =    1.55449
:MMI001: MAGNETIC MOMENT IN SPHERE   1    =    2.94410
:MMI002: MAGNETIC MOMENT IN SPHERE   2    =    2.94410
:MMI003: MAGNETIC MOMENT IN SPHERE   3    =    2.23211
:MMTOT:  SPIN MAGNETIC MOMENT IN CELL     =   11.90691

:NEC03: NUCLEAR AND ELECTRONIC CHARGE    142.00000   142.00000

PW CHANGE     H    K    L      Current       Change    Residue
:PUP001:      0    0    0  2.82931716E-02 -3.632E-03 -6.761E-03
:PUP003:      0    0   -2 -1.17963996E-02  4.369E-03  1.038E-02
:PUP004:      0   -2   -2 -4.43491098E-03 -2.356E-02 -1.976E-02
:PUP006:     -2   -2   -2  3.88989704E-03  3.167E-03  1.417E-03
:PUP007:      0    0   -4 -1.33373832E-02 -5.957E-03  3.418E-04
:PUP009:      0   -2   -4  1.49918227E-02  4.610E-03 -4.842E-03
:PUP010:     -2   -2   -4 -3.62902556E-02 -1.083E-02  1.288E-02
:PUP013:      0   -4   -4 -8.69472294E-03 -2.028E-03  5.318E-03
:PUP015:     -2   -4   -4  3.69822389E-03  3.647E-04 -2.723E-03
:PUP016:      0    0   -6  9.26684240E-04  9.171E-05 -6.044E-04
:PUP017:      0   -2   -6 -5.42606275E-03 -8.552E-04  5.345E-03
:PUP019:     -2   -2   -6  4.95183761E-04 -2.600E-04 -7.210E-04
  
:PDN001:      0    0    0  1.54770784E-02 -1.348E-03  3.982E-03
:PDN003:      0    0   -2 -6.88448524E-03  3.057E-03  2.858E-03
:PDN004:      0   -2   -2  6.01691629E-03 -1.079E-02 -1.846E-02
:PDN006:     -2   -2   -2  2.58148871E-03  1.906E-03  1.541E-03
:PDN007:      0    0   -4 -7.53831706E-03 -3.060E-03 -1.096E-03
:PDN009:      0   -2   -4  1.10752492E-02  2.171E-03 -2.099E-03
:PDN010:     -2   -2   -4 -2.45251883E-02 -5.875E-03  1.176E-02
:PDN013:      0   -4   -4 -6.31151317E-03 -1.046E-03  4.746E-03
:PDN015:     -2   -4   -4  2.80643743E-03 -3.086E-04 -2.887E-03
:PDN016:      0    0   -6  7.13495329E-04 -7.412E-05 -3.096E-04
:PDN017:      0   -2   -6 -3.78370816E-03 -1.441E-04  2.861E-03
:PDN019:     -2   -2   -6  3.02369998E-04 -5.031E-04 -7.613E-04

:ENE  : *WARNING** TOTAL ENERGY IN Ry =       -24232.16762014

 Flat Integration
 New Mode for Coulomb Integral
 Consistent 3/8+Simpson combinations
 Extension of core to zero
 LDM version in phi
 Fifth-order quadrature in outwin


            ---------
:ITE003:  3. ITERATION
            ---------

:NATO :    3 INDEPENDENT AND    4 TOTAL ATOMS IN UNITCELL
       SUBSTANCE: FeRh                                                        

       LATTICE                      = F   
:POT  : POTENTIAL OPTION EX_PBE EC_PBE VX_PBE VC_PBE
:LAT  : LATTICE CONSTANTS= 11.27222 11.27222 11.27222    1.571    1.571    1.571
:VOL  : UNIT CELL VOLUME =     358.07036
       MODE OF CALCULATION IS       = RELA
       SPINPOLARIZED CALCULATION
:IFFT  : FFT-parameters:   90   90   90 Factor: 2.00


   CONVERGENCE PARAMETER FOR PSEUDOCHARGE: NCON=  9
   MAXIMAL VALUE OF RMT(JATOM)*ABSK(NKK) : RK  =29.05063


:VKCOUL :  VK-COUL convergence: 0.529E-07
       ATOMNUMBER=  1 Fe1        VCOUL-ZERO =  0.61920E+00
       ATOMNUMBER=  2 Fe2        VCOUL-ZERO =  0.61920E+00
       ATOMNUMBER=  3 Rh1        VCOUL-ZERO =  0.59009E+00
:FIT001: LUSE= 13 SIGMA OF V-XC FIT FOR ATOM  1  0.6979664E-02
:FIT001: LUSE= 13 SIGMA OF V-XC FIT FOR ATOM  1  0.1657265E-02
:FIT002: LUSE= 13 SIGMA OF V-XC FIT FOR ATOM  2  0.6979664E-02
:FIT002: LUSE= 13 SIGMA OF V-XC FIT FOR ATOM  2  0.1657265E-02
:FIT003: LUSE= 13 SIGMA OF V-XC FIT FOR ATOM  3  0.1401203E-02
:FIT003: LUSE= 13 SIGMA OF V-XC FIT FOR ATOM  3  0.3492038E-03
:DEN  : DENSITY INTEGRAL  =         -9881.55738041   (Ry)
       ELS_POTENTIAL_AT Z=0 and Z=0.5:  -0.20363  -0.20363
       ELS_POTENTIAL_AT Y=0 and Y=0.5:   0.00000   0.00000
:VZERO:v0,v0c,v0x  -0.77422  -0.20363  -0.57059 v5,v5c,v5x  -0.77422  -0.20363  -0.57059
:VZERY:v0,v0c,v0x  -0.82940   0.00000  -0.82940 v5,v5c,v5x  -0.82940   0.00000  -0.82940
:VZERX:v0,v0c,v0x  -0.82940   0.00000  -0.82940 v5,v5c,v5x  -0.82940   0.00000  -0.82940
:LMAX-WF:   10   Non-Spherical LMAX:   4

          ATOMIC SPHERE DEPENDENT PARAMETERS FOR ATOM  Fe1       
:e__0001: OVERALL ENERGY PARAMETER IS    0.5640
          OVERALL BASIS SET ON ATOM IS LAPW
:E1_0001: E( 1)=    0.5640
             APW+lo
:E1_0001: E( 1)=   -3.2193   E(BOTTOM)=   -3.252   E(TOP)=   -3.187  1  2   174
             LOCAL ORBITAL
:E2_0001: E( 2)=    0.5637   E(BOTTOM)=    0.321   E(TOP)=    0.806  0  1   127
             APW+lo
:E0_0001: E( 0)=    0.5640
             APW+lo

          ATOMIC SPHERE DEPENDENT PARAMETERS FOR ATOM  Fe2       
:e__0002: OVERALL ENERGY PARAMETER IS    0.5640
          OVERALL BASIS SET ON ATOM IS LAPW
:E1_0002: E( 1)=    0.5640
             APW+lo
:E1_0002: E( 1)=   -3.2193   E(BOTTOM)=   -3.252   E(TOP)=   -3.187  1  2   174
             LOCAL ORBITAL
:E2_0002: E( 2)=    0.5637   E(BOTTOM)=    0.321   E(TOP)=    0.806  0  1   127
             APW+lo
:E0_0002: E( 0)=    0.5640
             APW+lo

          ATOMIC SPHERE DEPENDENT PARAMETERS FOR ATOM  Rh1       
:e__0003: OVERALL ENERGY PARAMETER IS    0.5640
          OVERALL BASIS SET ON ATOM IS LAPW
:E1_0003: E( 1)=    0.5640
             APW+lo
:E1_0003: E( 1)=   -2.6783   E(BOTTOM)=   -2.778   E(TOP)=   -2.578  2  3   163
             LOCAL ORBITAL
:E2_0003: E( 2)=    0.5725   E(BOTTOM)=    0.116   E(TOP)=    1.029  1  2   146
             APW+lo
:E0_0003: E( 0)=    0.5640
             APW+lo

       K=   0.00000   0.00000   0.00000            1
:RKM  : MATRIX SIZE   185LOs:  48  RKM= 6.64  WEIGHT= 1.00  PGR:    
       EIGENVALUES ARE:
:EIG00001:      -3.2132716   -3.2132716   -3.2132716   -3.2114638   -3.2114638
:EIG00006:      -3.2114638   -2.6612183   -2.6612183   -2.6612183   -2.6532913
:EIG00011:      -2.6532913   -2.6532913    0.0261143    0.2932628    0.2932628
:EIG00016:       0.3660775    0.3660775    0.3660775    0.4895319    0.4895319
:EIG00021:       0.4895319    0.5246456    0.5246456    0.5246456    0.6639183
:EIG00026:       0.6639183    0.6759528    0.6759528    0.7267911    0.7267911
:EIG00031:       0.7595953    0.7595953    0.7595953    1.2131717    1.2764832
:EIG00036:       1.2764832    1.2764832    1.2856884    1.2856884    1.2856884
:EIG00041:       1.3994016    1.3994016    1.3994016    1.4541006    1.9456766
:EIG00046:       1.9456766    2.0307514    2.1062722    2.1062722    2.1062722
 
       ********************************************************

:KPT   :      NUMBER OF K-POINTS:   286
:LMAX-WF:   10   Non-Spherical LMAX:   4

          ATOMIC SPHERE DEPENDENT PARAMETERS FOR ATOM  Fe1       
:e__0001: OVERALL ENERGY PARAMETER IS    0.5640
          OVERALL BASIS SET ON ATOM IS LAPW
:E1_0001: E( 1)=    0.5640
             APW+lo
:E1_0001: E( 1)=   -3.0290   E(BOTTOM)=   -3.063   E(TOP)=   -2.995  1  2   197
             LOCAL ORBITAL
:E2_0001: E( 2)=    0.7450   E(BOTTOM)=    0.493   E(TOP)=    0.997  0  1   125
             APW+lo
:E0_0001: E( 0)=    0.5640
             APW+lo

          ATOMIC SPHERE DEPENDENT PARAMETERS FOR ATOM  Fe2       
:e__0002: OVERALL ENERGY PARAMETER IS    0.5640
          OVERALL BASIS SET ON ATOM IS LAPW
:E1_0002: E( 1)=    0.5640
             APW+lo
:E1_0002: E( 1)=   -3.0290   E(BOTTOM)=   -3.063   E(TOP)=   -2.995  1  2   196
             LOCAL ORBITAL
:E2_0002: E( 2)=    0.7450   E(BOTTOM)=    0.493   E(TOP)=    0.997  0  1   125
             APW+lo
:E0_0002: E( 0)=    0.5640
             APW+lo

          ATOMIC SPHERE DEPENDENT PARAMETERS FOR ATOM  Rh1       
:e__0003: OVERALL ENERGY PARAMETER IS    0.5640
          OVERALL BASIS SET ON ATOM IS LAPW
:E1_0003: E( 1)=    0.5640
             APW+lo
:E1_0003: E( 1)=   -2.5780   E(BOTTOM)=   -2.677   E(TOP)=   -2.479  2  3   180
             LOCAL ORBITAL
:E2_0003: E( 2)=    0.5640   E(BOTTOM)=    0.231   E(TOP)= -200.000  1 -1    91
             APW+lo
:E0_0003: E( 0)=    0.5640
             APW+lo

       K=   0.00000   0.00000   0.00000            1
:RKM  : MATRIX SIZE   185LOs:  48  RKM= 6.64  WEIGHT= 1.00  PGR:    
       EIGENVALUES ARE:
:EIG00001:      -3.0227651   -3.0227651   -3.0227651   -3.0209048   -3.0209048
:EIG00006:      -3.0209048   -2.5606073   -2.5606073   -2.5606073   -2.5530533
:EIG00011:      -2.5530533   -2.5530533    0.1833867    0.4378826    0.4378826
:EIG00016:       0.5005162    0.5005162    0.5005162    0.6647419    0.6647419
:EIG00021:       0.6647419    0.6697219    0.6697219    0.6697219    0.8261544
:EIG00026:       0.8261544    0.8392172    0.8392172    0.8623107    0.8623107
:EIG00031:       0.9144278    0.9144278    0.9144278    1.3697343    1.4432122
:EIG00036:       1.4432122    1.4432122    1.4451163    1.4451163    1.4451163
:EIG00041:       1.5441693    1.5441693    1.5441693    1.5887139    2.1188980
:EIG00046:       2.1188980    2.1723389
 
       ********************************************************

:KPT   :      NUMBER OF K-POINTS:   286
:GAP (global)   :    0.0    Ry =     0.0   eV (metal)
:GAP (this spin):    0.0    Ry =     0.0   eV (metal)
         Bandranges (emin - emax) and occupancy:
:BAN00025:  25    0.579569    0.663918  1.00000000
:BAN00026:  26    0.595467    0.671458  1.00000000
:BAN00027:  27    0.605658    0.675953  1.00000000
:BAN00028:  28    0.631020    0.677697  1.00000000
:BAN00029:  29    0.649436    0.726791  1.00000000
:BAN00030:  30    0.664691    0.726791  1.00000000
:BAN00031:  31    0.671450    0.759595  1.00000000
:BAN00032:  32    0.693358    0.759595  1.00000000
:BAN00033:  33    0.699837    0.778329  1.00000000
:BAN00034:  34    0.736900    1.215374  0.31579513
:BAN00035:  35    0.780985    1.276483  0.00029450
:BAN00036:  36    0.797884    1.276483  0.00000000
:BAN00037:  37    1.225042    1.445968  0.00000000
:BAN00038:  38    1.232738    1.546935  0.00000000
:BAN00039:  39    1.273860    1.754191  0.00000000
:BAN00040:  40    1.285688    1.762251  0.00000000
        Energy to separate low and high energystates:   -0.02389


:NOE  : NUMBER OF ELECTRONS          =   58.000

:FER  : F E R M I - ENERGY(TETRAH.M.)=   0.7832934017
:GMA  : POTENTIAL AND CHARGE CUT-OFF  12.00 Ry**.5

:POS001: ATOM    1 X,Y,Z = 0.00000 0.00000 0.00000  MULT= 1  ZZ= 26.000  Fe1       

       LMMAX  5
       LM=   0 0  4 0  4 4  6 0  6 4

:CHA001: TOTAL VALENCE CHARGE INSIDE SPHERE   1 =   8.0377    (RMT=  2.4300 )
:PCS001: PARTIAL CHARGES SPHERE =  1 S,P,D,F,      D-EG,D-T2G 
:QTL001: 0.2558 3.2943 4.4445 0.0315 0.0000 0.0000 0.0000 1.8443 2.6002 0.0000 0.0000 0.0000
        Q-s-low E-s-low   Q-p-low E-p-low   Q-d-low E-d-low   Q-f-low E-f-low
:EPL001:  0.0006 -2.6667    2.9951 -3.2121    0.0014 -2.6623    0.0006 -2.6628
        Q-s-hi  E-s-hi    Q-p-hi  E-p-hi    Q-d-hi  E-d-hi    Q-f-hi  E-f-hi 
:EPH001:  0.2552  0.2974    0.2992  0.4544    4.4431  0.5865    0.0309  0.5435

:POS002: ATOM    2 X,Y,Z = 0.50000 0.00000 0.00000  MULT= 1  ZZ= 26.000  Fe2       

       LMMAX  5
       LM=   0 0  4 0  4 4  6 0  6 4

:CHA002: TOTAL VALENCE CHARGE INSIDE SPHERE   2 =   8.0377    (RMT=  2.4300 )
:PCS002: PARTIAL CHARGES SPHERE =  2 S,P,D,F,      D-EG,D-T2G 
:QTL002: 0.2558 3.2943 4.4445 0.0315 0.0000 0.0000 0.0000 1.8443 2.6002 0.0000 0.0000 0.0000
        Q-s-low E-s-low   Q-p-low E-p-low   Q-d-low E-d-low   Q-f-low E-f-low
:EPL002:  0.0006 -2.6667    2.9951 -3.2121    0.0014 -2.6623    0.0006 -2.6628
        Q-s-hi  E-s-hi    Q-p-hi  E-p-hi    Q-d-hi  E-d-hi    Q-f-hi  E-f-hi 
:EPH002:  0.2552  0.2974    0.2992  0.4544    4.4431  0.5865    0.0309  0.5435

:POS003: ATOM    3 X,Y,Z = 0.25000 0.25000 0.25000  MULT= 2  ZZ= 45.000  Rh1       

       LMMAX  6
       LM=   0 0  4 0  4 4  6 0  6 4 -3 2

:CHA003: TOTAL VALENCE CHARGE INSIDE SPHERE   3 =   7.3040    (RMT=  2.4300 )
:PCS003: PARTIAL CHARGES SPHERE =  3 S,P,D,F,      D-EG,D-T2G 
:QTL003: 0.1909 3.1904 3.8874 0.0273 0.0000 0.0000 0.0000 1.5609 2.3266 0.0000 0.0000 0.0000
        Q-s-low E-s-low   Q-p-low E-p-low   Q-d-low E-d-low   Q-f-low E-f-low
:EPL003:  0.0002 -3.1230    2.9785 -2.6579    0.0004 -3.1364    0.0002 -3.1347
        Q-s-hi  E-s-hi    Q-p-hi  E-p-hi    Q-d-hi  E-d-hi    Q-f-hi  E-f-hi 
:EPH003:  0.1907  0.2988    0.2120  0.4703    3.8870  0.5350    0.0271  0.5596

:CHA  : TOTAL VALENCE CHARGE INSIDE UNIT CELL =      33.316090

:SUM  : SUM OF EIGENVALUES =         -23.937898446

:GAP (global)   :    0.0    Ry =     0.0   eV (metal)
:GAP (this spin):    0.0    Ry =     0.0   eV (metal)
         Bandranges (emin - emax) and occupancy:
:BAN00017:  17    0.500516    0.597329  1.00000000
:BAN00018:  18    0.500516    0.597619  1.00000000
:BAN00019:  19    0.538206    0.664742  1.00000000
:BAN00020:  20    0.586659    0.668057  1.00000000
:BAN00021:  21    0.592588    0.668057  1.00000000
:BAN00022:  22    0.596236    0.727112  1.00000000
:BAN00023:  23    0.596236    0.755013  1.00000000
:BAN00024:  24    0.605210    0.774224  1.00000120
:BAN00025:  25    0.741744    0.826154  0.51137452
:BAN00026:  26    0.769600    0.832920  0.17005696
:BAN00027:  27    0.778550    0.839217  0.00247814
:BAN00028:  28    0.794714    0.839615  0.00000000
:BAN00029:  29    0.815817    0.877284  0.00000000
:BAN00030:  30    0.828325    0.888635  0.00000000
:BAN00031:  31    0.829893    0.914428  0.00000000
:BAN00032:  32    0.854818    0.914428  0.00000000
        Energy to separate low and high energystates:    0.13339


:NOE  : NUMBER OF ELECTRONS          =   58.000

:FER  : F E R M I - ENERGY(TETRAH.M.)=   0.7832934017
:GMA  : POTENTIAL AND CHARGE CUT-OFF  12.00 Ry**.5

:POS001: ATOM    1 X,Y,Z = 0.00000 0.00000 0.00000  MULT= 1  ZZ= 26.000  Fe1       

       LMMAX  5
       LM=   0 0  4 0  4 4  6 0  6 4

:CHA001: TOTAL VALENCE CHARGE INSIDE SPHERE   1 =   5.0644    (RMT=  2.4300 )
:PCS001: PARTIAL CHARGES SPHERE =  1 S,P,D,F,      D-EG,D-T2G 
:QTL001: 0.2326 3.2478 1.5542 0.0224 0.0000 0.0000 0.0000 0.4876 1.0665 0.0000 0.0000 0.0000
        Q-s-low E-s-low   Q-p-low E-p-low   Q-d-low E-d-low   Q-f-low E-f-low
:EPL001:  0.0005 -2.5659    2.9948 -3.0216    0.0013 -2.5615    0.0005 -2.5619
        Q-s-hi  E-s-hi    Q-p-hi  E-p-hi    Q-d-hi  E-d-hi    Q-f-hi  E-f-hi 
:EPH001:  0.2320  0.4162    0.2530  0.5659    1.5528  0.6251    0.0218  0.6164

:POS002: ATOM    2 X,Y,Z = 0.50000 0.00000 0.00000  MULT= 1  ZZ= 26.000  Fe2       

       LMMAX  5
       LM=   0 0  4 0  4 4  6 0  6 4

:CHA002: TOTAL VALENCE CHARGE INSIDE SPHERE   2 =   5.0644    (RMT=  2.4300 )
:PCS002: PARTIAL CHARGES SPHERE =  2 S,P,D,F,      D-EG,D-T2G 
:QTL002: 0.2326 3.2478 1.5542 0.0224 0.0000 0.0000 0.0000 0.4876 1.0665 0.0000 0.0000 0.0000
        Q-s-low E-s-low   Q-p-low E-p-low   Q-d-low E-d-low   Q-f-low E-f-low
:EPL002:  0.0005 -2.5659    2.9948 -3.0216    0.0013 -2.5615    0.0005 -2.5619
        Q-s-hi  E-s-hi    Q-p-hi  E-p-hi    Q-d-hi  E-d-hi    Q-f-hi  E-f-hi 
:EPH002:  0.2320  0.4162    0.2530  0.5659    1.5528  0.6251    0.0218  0.6164

:POS003: ATOM    3 X,Y,Z = 0.25000 0.25000 0.25000  MULT= 2  ZZ= 45.000  Rh1       

       LMMAX  6
       LM=   0 0  4 0  4 4  6 0  6 4 -3 2

:CHA003: TOTAL VALENCE CHARGE INSIDE SPHERE   3 =   6.1409    (RMT=  2.4300 )
:PCS003: PARTIAL CHARGES SPHERE =  3 S,P,D,F,      D-EG,D-T2G 
:QTL003: 0.1849 3.1600 2.7781 0.0146 0.0000 0.0000 0.0000 0.9118 1.8663 0.0000 0.0000 0.0000
        Q-s-low E-s-low   Q-p-low E-p-low   Q-d-low E-d-low   Q-f-low E-f-low
:EPL003:  0.0002 -2.9559    2.9794 -2.5575    0.0004 -2.9648    0.0002 -2.9616
        Q-s-hi  E-s-hi    Q-p-hi  E-p-hi    Q-d-hi  E-d-hi    Q-f-hi  E-f-hi 
:EPH003:  0.1847  0.4357    0.1806  0.5913    2.7777  0.5783    0.0144  0.6356

:CHA  : TOTAL VALENCE CHARGE INSIDE UNIT CELL =      24.683911

:SUM  : SUM OF EIGENVALUES =         -26.217743398


        1.ATOM      Fe1                   5 CORE STATES
:1S 001: 1S                -512.981965547 Ry
:2S 001: 2S                 -58.930202012 Ry
:2PP001: 2P*                -50.623439479 Ry
:2P 001: 2P                 -49.706808607 Ry
:3S 001: 3S                  -5.700775660 Ry

        2.ATOM      Fe2                   5 CORE STATES
:1S 002: 1S                -512.981965554 Ry
:2S 002: 2S                 -58.930202018 Ry
:2PP002: 2P*                -50.623439486 Ry
:2P 002: 2P                 -49.706808613 Ry
:3S 002: 3S                  -5.700775665 Ry

        3.ATOM      Rh1                  10 CORE STATES
:1S 003: 1S               -1691.282144129 Ry
:2S 003: 2S                -244.183452020 Ry
:2PP003: 2P*               -225.990535965 Ry
:2P 003: 2P                -215.361801212 Ry
:3S 003: 3S                 -42.717949693 Ry
:3PP003: 3P*                -35.600693111 Ry
:3P 003: 3P                 -33.772063935 Ry
:3DD003: 3D*                -21.177068624 Ry
:3D 003: 3D                 -20.816479611 Ry
:4S 003: 4S                  -5.003451330 Ry

        1.ATOM      Fe1                   5 CORE STATES
:1S 001: 1S                -512.981183085 Ry
:2S 001: 2S                 -58.847780263 Ry
:2PP001: 2P*                -50.561994802 Ry
:2P 001: 2P                 -49.643576738 Ry
:3S 001: 3S                  -5.507508161 Ry

        2.ATOM      Fe2                   5 CORE STATES
:1S 002: 1S                -512.981183092 Ry
:2S 002: 2S                 -58.847780270 Ry
:2PP002: 2P*                -50.561994808 Ry
:2P 002: 2P                 -49.643576745 Ry
:3S 002: 3S                  -5.507508166 Ry

        3.ATOM      Rh1                  10 CORE STATES
:1S 003: 1S               -1691.281033807 Ry
:2S 003: 2S                -244.162811543 Ry
:2PP003: 2P*               -225.975516858 Ry
:2P 003: 2P                -215.345736128 Ry
:3S 003: 3S                 -42.706317872 Ry
:3PP003: 3P*                -35.587268050 Ry
:3P 003: 3P                 -33.759061017 Ry
:3DD003: 3D*                -21.157375190 Ry
:3D 003: 3D                 -20.796845521 Ry
:4S 003: 4S                  -4.909909377 Ry
:CINT001 Core Integral Atom   1 Up    5.999610 Dn   5.999595 Total  11.999205
:CINT002 Core Integral Atom   2 Up    5.999610 Dn   5.999595 Total  11.999205
:CINT003 Core Integral Atom   3 Up   14.998606 Dn  14.998648 Total  29.997254

       DENSITY AT NUCLEUS
        JATOM        VALENCE       SEMI-CORE          CORE           TOTAL
:RTO001:   1        7.244181        0.000000    15301.749398    15308.993579
:RTO002:   2        7.244181        0.000000    15301.749398    15308.993579
:RTO003:   3       24.556284        0.000000   155310.799707   155335.355990

       HYPERFINE FIELDS FOR THOMSON RADIUS
:HFF001:          160.868           0.000        -306.517        -145.650 (KGAUSS)
:HFF002:          160.868           0.000        -306.517        -145.650 (KGAUSS)
:HFF003:           90.110           0.000        -460.105        -369.995 (KGAUSS)
     
       CHARGES OF NEW CHARGE DENSITY
:NTO   : INTERSTITIAL     UP =     2.632798 DN =     2.273308 TOT =     4.906105
:NPC   : PW Pseudocharge  UP =     6.350099 DN =     5.141195 TOT =    11.491294
:NTO001: CHARGE SPHERE  1 UP =    14.037280 DN =    11.063961 TOT =    25.101242
:NTO002: CHARGE SPHERE  2 UP =    14.037280 DN =    11.063961 TOT =    25.101242
:NTO003: CHARGE SPHERE  3 UP =    22.302563 DN =    21.139570 TOT =    43.442133

:NEC01: NUCLEAR AND ELECTRONIC CHARGE    142.00000   141.99285
     
       CHARGES OF OLD CHARGE DENSITY
:OTO   : INTERSTITIAL     UP =     2.694016 DN =     1.139524 TOT =     3.833540
:OPC   : PW Pseudocharge  UP =     7.436930 DN =     4.402360 TOT =    11.839290
:OTO001: CHARGE SPHERE  1 UP =    14.098258 DN =    11.154159 TOT =    25.252417
:OTO002: CHARGE SPHERE  2 UP =    14.098258 DN =    11.154159 TOT =    25.252417
:OTO003: CHARGE SPHERE  3 UP =    23.031462 DN =    20.799352 TOT =    43.830813

:NEC02: NUCLEAR AND ELECTRONIC CHARGE    142.00000   142.00000
     
       CONVERGENCE TEST
:DTO001: DIFFERENCE SPHERE  1 UP =  0.0492784 DN =  0.5810307 TOT =  0.6303091
:DTO002: DIFFERENCE SPHERE  2 UP =  0.0492784 DN =  0.5810307 TOT =  0.6303091
:DTO003: DIFFERENCE SPHERE  3 UP =  0.5072277 DN =  0.2108062 TOT =  0.7180339

:DIS  :  CHARGE DISTANCE       ( 0.5810307 for atom    2 spin 2)      1.3483430
 PW Mixed is           49
 
******************************************************
* MULTISECANT MIXING VER9 RELEASE 10.4.0              *
* Slow Mode, cautious                                *
* Fixed density scale                                *
* Regularization       1.000E-04                     *
* Step Trust Radius    0.75000                       *
* Trust Upper Limit    2.000E+00                     *
* Max Number of Memory Steps   12                    *
******************************************************
 
:PWTMP   1.1765E+02  4.5917E+02  3.5807E+02
:PLANE:  PW TOTAL      2.6931 DISTAN   8.04E-01  2.98E+01 %
:CHARG:  CLM/ATOM    212.0492 DISTAN   3.98E-01  1.88E-01 %
INFO: Reducing dbase  1.00000E-02 1.34834E+00 8.61192E-03
 
Step History
        DMIX         DMIXT        Red     Pred      Trust     Lambda    MagRel    MagAbs     Beta
  1   3.5000E-02   3.5000E-02 -1.00E+00  1.00E+00 -1.00E+01  1.00E+00  3.50E-02  3.50E-02  1.00E+00
  2   2.0386E-02   2.0386E-02  6.82E-01  1.00E+00 -1.00E+01  1.00E+00  2.04E-02  3.92E-02  1.00E+00
  3   2.7975E-02   2.7975E-02 -1.00E+00  1.00E+00 -1.00E+01  1.00E+00  2.80E-02  3.67E-02  1.00E+00
:JACOBIANS    7.444E-01   4.533E-04
  
:NORMS:  1/Froebius, Min, Max, Used   0.9967E+00  0.4975E+00  0.9969E+00  0.9969E+00
:INFO :  Number of Memory Steps    2 Skipping    0
:INFO :  SLambda=    0.0539618225  Max    0.0539618225
:PREDicted Charge, CTotal, PW Trust    3.041E-03   8.398E-03   4.318E-01
:PREDicted DMix, Beta, BLim   6.6453E-02  9.7793E-01  9.2180E-01

Eigenvalues, unscaled except for SY+YY
   #     SY Real        SY Imag          SS             YY         SY+YY Real      SY+YY Imag
   1   2.442491E-15   0.000000E+00   1.986932E+00   1.999467E+00   5.332376E-04   0.000000E+00
   2   1.988609E+00   0.000000E+00  -1.110223E-16   5.332232E-04   2.106776E+00   0.000000E+00
 
:INFO :  Singular value  2.107E+00 Weight  1.000E+00 Projection  3.167E-03
:INFO :  Singular value  5.332E-04 Weight  8.767E-01 Projection -3.938E+00
:RANK :  ACTIVE   1.88/2  =  93.84 % ; YY RANK   1.88/2  =  93.84 %
 
:DLIM :  Beta Active  9.834E-01
:BLIM :  VZERO Control Off
:TRUST:  Step 1.67E-01  Charge 7.50E-02 (e) CTO  2.50E-01 (e) PW  3.85E-01 (e)
:DIRM :  MEMORY  2/12 SCALE   1.000 RED  0.96 PRED  1.00 NEXT  1.00 BETA  0.98
:TRAVE:  Charge 1.73E-02 (e) CTO  5.08E-02 (e) PW  3.18E-02 (e)
:DIRP :  |MSR1|= 2.094E-02 |PRATT|= 4.018E-01 ANGLE=  15.9 DEGREES
:DIRQ :  |MSR1|= 5.598E-02 |PRATT|= 1.195E+00 ANGLE=   4.4 DEGREES
:DIRT :  |MSR1|= 5.977E-02 |PRATT|= 1.261E+00 ANGLE=   7.0 DEGREES
:MIX  :   MSD1   REGULARIZATION:  2.00E-04 GREED: 0.04714  Newton 1.00  0.0474                
     
       CHARGES OF MIXED CHARGE DENSITY
:CTO   : INTERSTITIAL     UP =     2.691289 DN =     1.193092 TOT =     3.884381
:CPC   : PW Pseudocharge  UP =     7.406407 DN =     4.445695 TOT =    11.852102
:CTO001: CHARGE SPHERE  1 UP =    14.095535 DN =    11.148807 TOT =    25.244342
:CTO002: CHARGE SPHERE  2 UP =    14.095535 DN =    11.148807 TOT =    25.244342
:CTO003: CHARGE SPHERE  3 UP =    22.997509 DN =    20.815958 TOT =    43.813468

       SPIN MAGNETIC MOMENTS OF MIXED CHARGE DENSITY
:MMINT:  MAGNETIC MOMENT IN INTERSTITIAL  =    1.49820
:MMI001: MAGNETIC MOMENT IN SPHERE   1    =    2.94673
:MMI002: MAGNETIC MOMENT IN SPHERE   2    =    2.94673
:MMI003: MAGNETIC MOMENT IN SPHERE   3    =    2.18155
:MMTOT:  SPIN MAGNETIC MOMENT IN CELL     =   11.75476

:NEC03: NUCLEAR AND ELECTRONIC CHARGE    142.00000   142.00000

PW CHANGE     H    K    L      Current       Change    Residue
:PUP001:      0    0    0  2.82003128E-02 -9.286E-05 -3.170E-03
:PUP002:     -1   -1   -1 -2.75627566E-12 -2.757E-12  5.672E-13
:PUP003:      0    0   -2 -1.15817256E-02  2.147E-04  6.004E-03
:PUP004:      0   -2   -2 -3.88274049E-03  5.522E-04  3.818E-03
:PUP005:     -1   -1   -3 -2.12308477E-12 -2.124E-12 -2.121E-11
:PUP006:     -2   -2   -2  3.75563147E-03 -1.343E-04 -1.762E-03
:PUP007:      0    0   -4 -1.29447825E-02  3.926E-04  6.299E-03
:PUP009:      0   -2   -4  1.44718709E-02 -5.200E-04 -9.456E-03
:PUP010:     -2   -2   -4 -3.49986391E-02  1.292E-03  2.371E-02
:PUP013:      0   -4   -4 -8.31625180E-03  3.785E-04  7.346E-03
:PUP014:     -1   -3   -5  1.34599164E-12  1.346E-12  5.594E-12
:PUP015:     -2   -4   -4  3.54685402E-03 -1.514E-04 -3.088E-03
  
:PDN001:      0    0    0  1.57477077E-02  2.706E-04  5.260E-03
:PDN002:     -1   -1   -1 -2.49829028E-12 -2.499E-12 -8.663E-11
:PDN003:      0    0   -2 -6.94178897E-03 -5.730E-05 -2.143E-04
:PDN004:      0   -2   -2  5.83651110E-03 -1.804E-04 -7.477E-03
:PDN005:     -1   -1   -3  3.05960128E-12  3.059E-12  4.825E-11
:PDN006:     -2   -2   -2  2.53450594E-03 -4.698E-05 -3.262E-04
:PDN007:      0    0   -4 -7.39578839E-03  1.425E-04  1.995E-03
:PDN008:     -1   -3   -3  1.50408930E-12  1.504E-12  3.814E-11
:PDN009:      0   -2   -4  1.08383230E-02 -2.369E-04 -4.230E-03
:PDN010:     -2   -2   -4 -2.36027144E-02  9.225E-04  1.763E-02
:PDN013:      0   -4   -4 -6.02247592E-03  2.890E-04  5.783E-03
:PDN015:     -2   -4   -4  2.69013892E-03 -1.163E-04 -2.570E-03

:ENE  : ********** TOTAL ENERGY IN Ry =       -24232.15880445

 Flat Integration
 New Mode for Coulomb Integral
 Consistent 3/8+Simpson combinations
 Extension of core to zero
 LDM version in phi
 Fifth-order quadrature in outwin


            ---------
:ITE004:  4. ITERATION
            ---------

:NATO :    3 INDEPENDENT AND    4 TOTAL ATOMS IN UNITCELL
       SUBSTANCE: FeRh                                                        

       LATTICE                      = F   
:POT  : POTENTIAL OPTION EX_PBE EC_PBE VX_PBE VC_PBE
:LAT  : LATTICE CONSTANTS= 11.27222 11.27222 11.27222    1.571    1.571    1.571
:VOL  : UNIT CELL VOLUME =     358.07036
       MODE OF CALCULATION IS       = RELA
       SPINPOLARIZED CALCULATION
:IFFT  : FFT-parameters:   90   90   90 Factor: 2.00


   CONVERGENCE PARAMETER FOR PSEUDOCHARGE: NCON=  9
   MAXIMAL VALUE OF RMT(JATOM)*ABSK(NKK) : RK  =29.05063


:VKCOUL :  VK-COUL convergence: 0.497E-07
       ATOMNUMBER=  1 Fe1        VCOUL-ZERO =  0.62189E+00
       ATOMNUMBER=  2 Fe2        VCOUL-ZERO =  0.62189E+00
       ATOMNUMBER=  3 Rh1        VCOUL-ZERO =  0.59187E+00
:FIT001: LUSE= 13 SIGMA OF V-XC FIT FOR ATOM  1  0.6424613E-02
:FIT001: LUSE= 13 SIGMA OF V-XC FIT FOR ATOM  1  0.6958438E-03
:FIT002: LUSE= 13 SIGMA OF V-XC FIT FOR ATOM  2  0.6424613E-02
:FIT002: LUSE= 13 SIGMA OF V-XC FIT FOR ATOM  2  0.6958438E-03
:FIT003: LUSE= 13 SIGMA OF V-XC FIT FOR ATOM  3  0.1179891E-02
:FIT003: LUSE= 13 SIGMA OF V-XC FIT FOR ATOM  3  0.4383499E-03
:DEN  : DENSITY INTEGRAL  =         -9878.44126635   (Ry)
       ELS_POTENTIAL_AT Z=0 and Z=0.5:  -0.20466  -0.20466
       ELS_POTENTIAL_AT Y=0 and Y=0.5:   0.00000   0.00000
:VZERO:v0,v0c,v0x  -0.78197  -0.20466  -0.57731 v5,v5c,v5x  -0.78197  -0.20466  -0.57731
:VZERY:v0,v0c,v0x  -0.82972   0.00000  -0.82972 v5,v5c,v5x  -0.82972   0.00000  -0.82972
:VZERX:v0,v0c,v0x  -0.82972   0.00000  -0.82972 v5,v5c,v5x  -0.82972   0.00000  -0.82972
:LMAX-WF:   10   Non-Spherical LMAX:   4

          ATOMIC SPHERE DEPENDENT PARAMETERS FOR ATOM  Fe1       
:e__0001: OVERALL ENERGY PARAMETER IS    0.5769
          OVERALL BASIS SET ON ATOM IS LAPW
:E1_0001: E( 1)=    0.5769
             APW+lo
:E1_0001: E( 1)=   -3.2406   E(BOTTOM)=   -3.273   E(TOP)=   -3.208  1  2   173
             LOCAL ORBITAL
:E2_0001: E( 2)=    0.5473   E(BOTTOM)=    0.309   E(TOP)=    0.786  0  1   124
             APW+lo
:E0_0001: E( 0)=    0.5769
             APW+lo

          ATOMIC SPHERE DEPENDENT PARAMETERS FOR ATOM  Fe2       
:e__0002: OVERALL ENERGY PARAMETER IS    0.5769
          OVERALL BASIS SET ON ATOM IS LAPW
:E1_0002: E( 1)=    0.5769
             APW+lo
:E1_0002: E( 1)=   -3.2406   E(BOTTOM)=   -3.273   E(TOP)=   -3.208  1  2   172
             LOCAL ORBITAL
:E2_0002: E( 2)=    0.5473   E(BOTTOM)=    0.309   E(TOP)=    0.786  0  1   123
             APW+lo
:E0_0002: E( 0)=    0.5769
             APW+lo

          ATOMIC SPHERE DEPENDENT PARAMETERS FOR ATOM  Rh1       
:e__0003: OVERALL ENERGY PARAMETER IS    0.5769
          OVERALL BASIS SET ON ATOM IS LAPW
:E1_0003: E( 1)=    0.5769
             APW+lo
:E1_0003: E( 1)=   -2.6924   E(BOTTOM)=   -2.792   E(TOP)=   -2.593  2  3   162
             LOCAL ORBITAL
:E2_0003: E( 2)=    0.5627   E(BOTTOM)=    0.109   E(TOP)=    1.017  1  2   149
             APW+lo
:E0_0003: E( 0)=    0.5769
             APW+lo

       K=   0.00000   0.00000   0.00000            1
:RKM  : MATRIX SIZE   185LOs:  48  RKM= 6.64  WEIGHT= 1.00  PGR:    
       EIGENVALUES ARE:
:EIG00001:      -3.2346470   -3.2346470   -3.2346470   -3.2328755   -3.2328755
:EIG00006:      -3.2328755   -2.6754572   -2.6754572   -2.6754572   -2.6676440
:EIG00011:      -2.6676440   -2.6676440    0.0255998    0.2859881    0.2859881
:EIG00016:       0.3607073    0.3607073    0.3607073    0.4776568    0.4776568
:EIG00021:       0.4776568    0.5125136    0.5125136    0.5125136    0.6487955
:EIG00026:       0.6487955    0.6574670    0.6574670    0.7159628    0.7159628
:EIG00031:       0.7447639    0.7447639    0.7447639    1.2102066    1.2691826
:EIG00036:       1.2691826    1.2691826    1.2841818    1.2841818    1.2841818
:EIG00041:       1.3935724    1.3935724    1.3935724    1.4516784    1.9388487
:EIG00046:       1.9388487    2.0270161    2.1069900    2.1069900    2.1069900
 
       ********************************************************

:KPT   :      NUMBER OF K-POINTS:   286
:LMAX-WF:   10   Non-Spherical LMAX:   4

          ATOMIC SPHERE DEPENDENT PARAMETERS FOR ATOM  Fe1       
:e__0001: OVERALL ENERGY PARAMETER IS    0.5769
          OVERALL BASIS SET ON ATOM IS LAPW
:E1_0001: E( 1)=    0.5769
             APW+lo
:E1_0001: E( 1)=   -3.0484   E(BOTTOM)=   -3.082   E(TOP)=   -3.015  1  2   197
             LOCAL ORBITAL
:E2_0001: E( 2)=    0.7299   E(BOTTOM)=    0.481   E(TOP)=    0.979  0  1   127
             APW+lo
:E0_0001: E( 0)=    0.5769
             APW+lo

          ATOMIC SPHERE DEPENDENT PARAMETERS FOR ATOM  Fe2       
:e__0002: OVERALL ENERGY PARAMETER IS    0.5769
          OVERALL BASIS SET ON ATOM IS LAPW
:E1_0002: E( 1)=    0.5769
             APW+lo
:E1_0002: E( 1)=   -3.0484   E(BOTTOM)=   -3.082   E(TOP)=   -3.015  1  2   197
             LOCAL ORBITAL
:E2_0002: E( 2)=    0.7299   E(BOTTOM)=    0.481   E(TOP)=    0.979  0  1   127
             APW+lo
:E0_0002: E( 0)=    0.5769
             APW+lo

          ATOMIC SPHERE DEPENDENT PARAMETERS FOR ATOM  Rh1       
:e__0003: OVERALL ENERGY PARAMETER IS    0.5769
          OVERALL BASIS SET ON ATOM IS LAPW
:E1_0003: E( 1)=    0.5769
             APW+lo
:E1_0003: E( 1)=   -2.5938   E(BOTTOM)=   -2.692   E(TOP)=   -2.496  2  3   174
             LOCAL ORBITAL
:E2_0003: E( 2)=    0.5769   E(BOTTOM)=    0.221   E(TOP)= -200.000  1 -1    93
             APW+lo
:E0_0003: E( 0)=    0.5769
             APW+lo

       K=   0.00000   0.00000   0.00000            1
:RKM  : MATRIX SIZE   185LOs:  48  RKM= 6.64  WEIGHT= 1.00  PGR:    
       EIGENVALUES ARE:
:EIG00001:      -3.0421922   -3.0421922   -3.0421922   -3.0403653   -3.0403653
:EIG00006:      -3.0403653   -2.5765907   -2.5765907   -2.5765907   -2.5691155
:EIG00011:      -2.5691155   -2.5691155    0.1766721    0.4278449    0.4278449
:EIG00016:       0.4904293    0.4904293    0.4904293    0.6516266    0.6516266
:EIG00021:       0.6516266    0.6566416    0.6566416    0.6566416    0.8116986
:EIG00026:       0.8116986    0.8266581    0.8266581    0.8462063    0.8462063
:EIG00031:       0.8983170    0.8983170    0.8983170    1.3633715    1.4330607
:EIG00036:       1.4330607    1.4330607    1.4357316    1.4357316    1.4357316
:EIG00041:       1.5334244    1.5334244    1.5334244    1.5813603    2.1051107
:EIG00046:       2.1051107    2.1659239    2.2635651    2.2635651    2.2635651
 
       ********************************************************

:KPT   :      NUMBER OF K-POINTS:   286
:GAP (global)   :    0.0    Ry =     0.0   eV (metal)
:GAP (this spin):    0.0    Ry =     0.0   eV (metal)
         Bandranges (emin - emax) and occupancy:
:BAN00025:  25    0.568036    0.648795  1.00000000
:BAN00026:  26    0.581894    0.654499  1.00000000
:BAN00027:  27    0.593777    0.657467  1.00000000
:BAN00028:  28    0.616749    0.662329  1.00000000
:BAN00029:  29    0.635584    0.715963  1.00000000
:BAN00030:  30    0.652118    0.715963  1.00000000
:BAN00031:  31    0.656179    0.744764  1.00000000
:BAN00032:  32    0.679094    0.744764  1.00000000
:BAN00033:  33    0.685597    0.762760  1.00000000
:BAN00034:  34    0.723230    1.212219  0.31022416
:BAN00035:  35    0.767302    1.269183  0.00020070
:BAN00036:  36    0.789056    1.269183  0.00000000
:BAN00037:  37    1.222841    1.439575  0.00000000
:BAN00038:  38    1.226070    1.541297  0.00000000
:BAN00039:  39    1.269701    1.753881  0.00000000
:BAN00040:  40    1.284182    1.762049  0.00000000
        Energy to separate low and high energystates:   -0.02440


:NOE  : NUMBER OF ELECTRONS          =   58.000

:FER  : F E R M I - ENERGY(TETRAH.M.)=   0.7690365534
:GMA  : POTENTIAL AND CHARGE CUT-OFF  12.00 Ry**.5

:POS001: ATOM    1 X,Y,Z = 0.00000 0.00000 0.00000  MULT= 1  ZZ= 26.000  Fe1       

       LMMAX  5
       LM=   0 0  4 0  4 4  6 0  6 4

:CHA001: TOTAL VALENCE CHARGE INSIDE SPHERE   1 =   8.0543    (RMT=  2.4300 )
:PCS001: PARTIAL CHARGES SPHERE =  1 S,P,D,F,      D-EG,D-T2G 
:QTL001: 0.2549 3.2891 4.4679 0.0309 0.0000 0.0000 0.0000 1.8506 2.6173 0.0000 0.0000 0.0000
        Q-s-low E-s-low   Q-p-low E-p-low   Q-d-low E-d-low   Q-f-low E-f-low
:EPL001:  0.0006 -2.6809    2.9952 -3.2335    0.0014 -2.6765    0.0006 -2.6771
        Q-s-hi  E-s-hi    Q-p-hi  E-p-hi    Q-d-hi  E-d-hi    Q-f-hi  E-f-hi 
:EPH001:  0.2544  0.2946    0.2939  0.4484    4.4666  0.5710    0.0303  0.5345

:POS002: ATOM    2 X,Y,Z = 0.50000 0.00000 0.00000  MULT= 1  ZZ= 26.000  Fe2       

       LMMAX  5
       LM=   0 0  4 0  4 4  6 0  6 4

:CHA002: TOTAL VALENCE CHARGE INSIDE SPHERE   2 =   8.0543    (RMT=  2.4300 )
:PCS002: PARTIAL CHARGES SPHERE =  2 S,P,D,F,      D-EG,D-T2G 
:QTL002: 0.2549 3.2891 4.4679 0.0309 0.0000 0.0000 0.0000 1.8506 2.6173 0.0000 0.0000 0.0000
        Q-s-low E-s-low   Q-p-low E-p-low   Q-d-low E-d-low   Q-f-low E-f-low
:EPL002:  0.0006 -2.6809    2.9952 -3.2335    0.0014 -2.6765    0.0006 -2.6771
        Q-s-hi  E-s-hi    Q-p-hi  E-p-hi    Q-d-hi  E-d-hi    Q-f-hi  E-f-hi 
:EPH002:  0.2544  0.2946    0.2939  0.4484    4.4666  0.5710    0.0303  0.5345

:POS003: ATOM    3 X,Y,Z = 0.25000 0.25000 0.25000  MULT= 2  ZZ= 45.000  Rh1       

       LMMAX  6
       LM=   0 0  4 0  4 4  6 0  6 4 -3 2

:CHA003: TOTAL VALENCE CHARGE INSIDE SPHERE   3 =   7.3050    (RMT=  2.4300 )
:PCS003: PARTIAL CHARGES SPHERE =  3 S,P,D,F,      D-EG,D-T2G 
:QTL003: 0.1890 3.1858 3.8960 0.0264 0.0000 0.0000 0.0000 1.5615 2.3345 0.0000 0.0000 0.0000
        Q-s-low E-s-low   Q-p-low E-p-low   Q-d-low E-d-low   Q-f-low E-f-low
:EPL003:  0.0001 -3.1431    2.9787 -2.6721    0.0004 -3.1567    0.0002 -3.1552
        Q-s-hi  E-s-hi    Q-p-hi  E-p-hi    Q-d-hi  E-d-hi    Q-f-hi  E-f-hi 
:EPH003:  0.1888  0.2941    0.2071  0.4629    3.8956  0.5263    0.0262  0.5464

:CHA  : TOTAL VALENCE CHARGE INSIDE UNIT CELL =      33.310425

:SUM  : SUM OF EIGENVALUES =         -24.382800918

:GAP (global)   :    0.0    Ry =     0.0   eV (metal)
:GAP (this spin):    0.0    Ry =     0.0   eV (metal)
         Bandranges (emin - emax) and occupancy:
:BAN00017:  17    0.490429    0.585292  1.00000000
:BAN00018:  18    0.490429    0.587610  1.00000000
:BAN00019:  19    0.527365    0.651627  1.00000000
:BAN00020:  20    0.575437    0.655069  1.00000000
:BAN00021:  21    0.580840    0.655069  1.00000000
:BAN00022:  22    0.584343    0.714134  1.00000000
:BAN00023:  23    0.584343    0.742406  1.00000000
:BAN00024:  24    0.593613    0.763445  1.00003040
:BAN00025:  25    0.728339    0.811699  0.50908040
:BAN00026:  26    0.756424    0.818847  0.17816804
:BAN00027:  27    0.763675    0.826658  0.00229630
:BAN00028:  28    0.780594    0.826658  0.00000000
:BAN00029:  29    0.801030    0.861442  0.00000000
:BAN00030:  30    0.813556    0.872726  0.00000000
:BAN00031:  31    0.817300    0.898317  0.00000000
:BAN00032:  32    0.839571    0.898317  0.00000000
        Energy to separate low and high energystates:    0.12667


:NOE  : NUMBER OF ELECTRONS          =   58.000

:FER  : F E R M I - ENERGY(TETRAH.M.)=   0.7690365534
:GMA  : POTENTIAL AND CHARGE CUT-OFF  12.00 Ry**.5

:POS001: ATOM    1 X,Y,Z = 0.00000 0.00000 0.00000  MULT= 1  ZZ= 26.000  Fe1       

       LMMAX  5
       LM=   0 0  4 0  4 4  6 0  6 4

:CHA001: TOTAL VALENCE CHARGE INSIDE SPHERE   1 =   5.0856    (RMT=  2.4300 )
:PCS001: PARTIAL CHARGES SPHERE =  1 S,P,D,F,      D-EG,D-T2G 
:QTL001: 0.2311 3.2439 1.5811 0.0221 0.0000 0.0000 0.0000 0.4919 1.0892 0.0000 0.0000 0.0000
        Q-s-low E-s-low   Q-p-low E-p-low   Q-d-low E-d-low   Q-f-low E-f-low
:EPL001:  0.0005 -2.5819    2.9949 -3.0410    0.0013 -2.5775    0.0005 -2.5780
        Q-s-hi  E-s-hi    Q-p-hi  E-p-hi    Q-d-hi  E-d-hi    Q-f-hi  E-f-hi 
:EPH001:  0.2306  0.4079    0.2490  0.5550    1.5798  0.6135    0.0215  0.6047

:POS002: ATOM    2 X,Y,Z = 0.50000 0.00000 0.00000  MULT= 1  ZZ= 26.000  Fe2       

       LMMAX  5
       LM=   0 0  4 0  4 4  6 0  6 4

:CHA002: TOTAL VALENCE CHARGE INSIDE SPHERE   2 =   5.0856    (RMT=  2.4300 )
[...]
             APW+lo
:E1_0001: E( 1)=   -3.1639   E(BOTTOM)=   -3.196   E(TOP)=   -3.131  1  2   183
             LOCAL ORBITAL
:E2_0001: E( 2)=    0.6253   E(BOTTOM)=    0.382   E(TOP)=    0.869  0  1   124
             APW+lo
:E0_0001: E( 0)=    0.4566
             APW+lo

          ATOMIC SPHERE DEPENDENT PARAMETERS FOR ATOM  Fe2       
:e__0002: OVERALL ENERGY PARAMETER IS    0.4566
          OVERALL BASIS SET ON ATOM IS LAPW
:E1_0002: E( 1)=    0.4566
             APW+lo
:E1_0002: E( 1)=   -3.1640   E(BOTTOM)=   -3.197   E(TOP)=   -3.131  1  2   181
             LOCAL ORBITAL
:E2_0002: E( 2)=    0.6252   E(BOTTOM)=    0.382   E(TOP)=    0.869  0  1   126
             APW+lo
:E0_0002: E( 0)=    0.4566
             APW+lo

          ATOMIC SPHERE DEPENDENT PARAMETERS FOR ATOM  Rh1       
:e__0003: OVERALL ENERGY PARAMETER IS    0.4566
          OVERALL BASIS SET ON ATOM IS LAPW
:E1_0003: E( 1)=    0.4566
             APW+lo
:E1_0003: E( 1)=   -2.7538   E(BOTTOM)=   -2.848   E(TOP)=   -2.660  2  3   149
             LOCAL ORBITAL
:E2_0003: E( 2)=    0.5328   E(BOTTOM)=    0.096   E(TOP)=    0.970  1  2   145
             APW+lo
:E0_0003: E( 0)=    0.4566
             APW+lo

       K=   0.00000   0.00000   0.00000            1
:RKM  : MATRIX SIZE   185LOs:  48  RKM= 6.64  WEIGHT= 1.00  PGR:    
       EIGENVALUES ARE:
:EIG00001:      -3.1579927   -3.1579927   -3.1579927   -3.1562584   -3.1562584
:EIG00006:      -3.1562584   -2.7376285   -2.7376285   -2.7376285   -2.7304247
:EIG00011:      -2.7304247   -2.7304247    0.0486218    0.3031911    0.3031911
:EIG00016:       0.3513230    0.3513230    0.3513230    0.5222256    0.5222256
:EIG00021:       0.5222256    0.5313628    0.5313628    0.5313628    0.6889021
:EIG00026:       0.6889021    0.7052227    0.7052227    0.7517981    0.7517981
:EIG00031:       0.7709365    0.7709365    0.7709365    1.2598006    1.2957717
:EIG00036:       1.2957717    1.2957717    1.3049691    1.3049691    1.3049691
:EIG00041:       1.3946169    1.3946169    1.3946169    1.4565733    1.9524443
:EIG00046:       1.9524443    2.0682802    2.1251548    2.1251548    2.1251548
 
       ********************************************************

:KPT   :      NUMBER OF K-POINTS:   286
:GAP (global)   :    0.0    Ry =     0.0   eV (metal)
:GAP (this spin):    0.0    Ry =     0.0   eV (metal)
         Bandranges (emin - emax) and occupancy:
:BAN00024:  24    0.354080    0.482189  1.00000000
:BAN00025:  25    0.458639    0.510370  1.00000000
:BAN00026:  26    0.473478    0.510370  1.00000000
:BAN00027:  27    0.480463    0.519590  1.00000000
:BAN00028:  28    0.491622    0.537129  1.00000000
:BAN00029:  29    0.503005    0.613136  1.00000000
:BAN00030:  30    0.515639    0.613136  1.00000000
:BAN00031:  31    0.523267    0.620838  1.00000000
:BAN00032:  32    0.556988    0.633905  1.00000000
:BAN00033:  33    0.564165    0.635480  1.00000000
:BAN00034:  34    0.613451    1.176989  0.23086399
:BAN00035:  35    0.677659    1.225201  0.00000000
:BAN00036:  36    0.709643    1.225201  0.00000000
:BAN00037:  37    1.167718    1.387043  0.00000000
:BAN00038:  38    1.176416    1.500537  0.00000000
:BAN00039:  39    1.239701    1.732284  0.00000000
        Energy to separate low and high energystates:   -0.02502


:NOE  : NUMBER OF ELECTRONS          =   58.000

:FER  : F E R M I - ENERGY(TETRAH.M.)=   0.6544185871
:GMA  : POTENTIAL AND CHARGE CUT-OFF  12.00 Ry**.5

:POS001: ATOM    1 X,Y,Z = 0.00000 0.00000 0.00000  MULT= 1  ZZ= 26.000  Fe1       

       LMMAX  5
       LM=   0 0  4 0  4 4  6 0  6 4

:CHA001: TOTAL VALENCE CHARGE INSIDE SPHERE   1 =   8.1616    (RMT=  2.4300 )
:PCS001: PARTIAL CHARGES SPHERE =  1 S,P,D,F,      D-EG,D-T2G 
:QTL001: 0.2481 3.2381 4.6392 0.0257 0.0000 0.0000 0.0000 1.8955 2.7437 0.0000 0.0000 0.0000
        Q-s-low E-s-low   Q-p-low E-p-low   Q-d-low E-d-low   Q-f-low E-f-low
:EPL001:  0.0005 -2.8070    2.9959 -3.4188    0.0012 -2.8032    0.0005 -2.8035
        Q-s-hi  E-s-hi    Q-p-hi  E-p-hi    Q-d-hi  E-d-hi    Q-f-hi  E-f-hi 
:EPH001:  0.2476  0.2716    0.2422  0.3935    4.6381  0.4264    0.0252  0.4537

:POS002: ATOM    2 X,Y,Z = 0.50000 0.00000 0.00000  MULT= 1  ZZ= 26.000  Fe2       

       LMMAX  5
       LM=   0 0  4 0  4 4  6 0  6 4

:CHA002: TOTAL VALENCE CHARGE INSIDE SPHERE   2 =   8.1618    (RMT=  2.4300 )
:PCS002: PARTIAL CHARGES SPHERE =  2 S,P,D,F,      D-EG,D-T2G 
:QTL002: 0.2481 3.2381 4.6394 0.0257 0.0000 0.0000 0.0000 1.8956 2.7438 0.0000 0.0000 0.0000
        Q-s-low E-s-low   Q-p-low E-p-low   Q-d-low E-d-low   Q-f-low E-f-low
:EPL002:  0.0005 -2.8070    2.9959 -3.4189    0.0012 -2.8032    0.0005 -2.8035
        Q-s-hi  E-s-hi    Q-p-hi  E-p-hi    Q-d-hi  E-d-hi    Q-f-hi  E-f-hi 
:EPH002:  0.2476  0.2716    0.2422  0.3935    4.6382  0.4262    0.0252  0.4537

:POS003: ATOM    3 X,Y,Z = 0.25000 0.25000 0.25000  MULT= 2  ZZ= 45.000  Rh1       

       LMMAX  6
       LM=   0 0  4 0  4 4  6 0  6 4 -3 2

:CHA003: TOTAL VALENCE CHARGE INSIDE SPHERE   3 =   7.3499    (RMT=  2.4300 )
:PCS003: PARTIAL CHARGES SPHERE =  3 S,P,D,F,      D-EG,D-T2G 
:QTL003: 0.1718 3.1414 4.0106 0.0196 0.0000 0.0000 0.0000 1.6033 2.4073 0.0000 0.0000 0.0000
        Q-s-low E-s-low   Q-p-low E-p-low   Q-d-low E-d-low   Q-f-low E-f-low
:EPL003:  0.0001 -3.3195    2.9810 -2.7989    0.0003 -3.3354    0.0002 -3.3349
        Q-s-hi  E-s-hi    Q-p-hi  E-p-hi    Q-d-hi  E-d-hi    Q-f-hi  E-f-hi 
:EPH003:  0.1717  0.2602    0.1604  0.3947    4.0102  0.4487    0.0195  0.4268

:CHA  : TOTAL VALENCE CHARGE INSIDE UNIT CELL =      33.230864

:SUM  : SUM OF EIGENVALUES =         -28.406855542

:GAP (global)   :    0.0    Ry =     0.0   eV (metal)
:GAP (this spin):    0.0    Ry =     0.0   eV (metal)
         Bandranges (emin - emax) and occupancy:
:BAN00017:  17    0.351323    0.449759  1.00000000
:BAN00018:  18    0.351323    0.453604  1.00000000
:BAN00019:  19    0.392541    0.522226  1.00000000
:BAN00020:  20    0.444623    0.522226  1.00000000
:BAN00021:  21    0.447044    0.525981  1.00000000
:BAN00022:  22    0.451167    0.584445  1.00000000
:BAN00023:  23    0.451167    0.611832  1.00000000
:BAN00024:  24    0.461342    0.636878  1.00000000
:BAN00025:  25    0.613689    0.697680  0.49495176
:BAN00026:  26    0.636136    0.697680  0.25683498
:BAN00027:  27    0.643850    0.705223  0.01734928
:BAN00028:  28    0.671203    0.716014  0.00000000
:BAN00029:  29    0.680222    0.751798  0.00000000
:BAN00030:  30    0.684672    0.751798  0.00000000
:BAN00031:  31    0.709955    0.770936  0.00000000
:BAN00032:  32    0.722537    0.775812  0.00000000
        Energy to separate low and high energystates:   -0.00138


:NOE  : NUMBER OF ELECTRONS          =   58.000

:FER  : F E R M I - ENERGY(TETRAH.M.)=   0.6544185871
:GMA  : POTENTIAL AND CHARGE CUT-OFF  12.00 Ry**.5

:POS001: ATOM    1 X,Y,Z = 0.00000 0.00000 0.00000  MULT= 1  ZZ= 26.000  Fe1       

       LMMAX  5
       LM=   0 0  4 0  4 4  6 0  6 4

:CHA001: TOTAL VALENCE CHARGE INSIDE SPHERE   1 =   4.9378    (RMT=  2.4300 )
:PCS001: PARTIAL CHARGES SPHERE =  1 S,P,D,F,      D-EG,D-T2G 
:QTL001: 0.2253 3.2439 1.4381 0.0227 0.0000 0.0000 0.0000 0.3959 1.0422 0.0000 0.0000 0.0000
        Q-s-low E-s-low   Q-p-low E-p-low   Q-d-low E-d-low   Q-f-low E-f-low
:EPL001:  0.0005 -2.7427    2.9949 -3.1568    0.0012 -2.7384    0.0005 -2.7408
        Q-s-hi  E-s-hi    Q-p-hi  E-p-hi    Q-d-hi  E-d-hi    Q-f-hi  E-f-hi 
:EPH001:  0.2248  0.2811    0.2490  0.4254    1.4368  0.4944    0.0222  0.4717

:POS002: ATOM    2 X,Y,Z = 0.50000 0.00000 0.00000  MULT= 1  ZZ= 26.000  Fe2       

       LMMAX  5
       LM=   0 0  4 0  4 4  6 0  6 4

:CHA002: TOTAL VALENCE CHARGE INSIDE SPHERE   2 =   4.9389    (RMT=  2.4300 )
:PCS002: PARTIAL CHARGES SPHERE =  2 S,P,D,F,      D-EG,D-T2G 
:QTL002: 0.2254 3.2439 1.4392 0.0227 0.0000 0.0000 0.0000 0.3962 1.0429 0.0000 0.0000 0.0000
        Q-s-low E-s-low   Q-p-low E-p-low   Q-d-low E-d-low   Q-f-low E-f-low
:EPL002:  0.0005 -2.7427    2.9949 -3.1569    0.0012 -2.7384    0.0005 -2.7408
        Q-s-hi  E-s-hi    Q-p-hi  E-p-hi    Q-d-hi  E-d-hi    Q-f-hi  E-f-hi 
:EPH002:  0.2249  0.2811    0.2490  0.4254    1.4379  0.4944    0.0222  0.4717

:POS003: ATOM    3 X,Y,Z = 0.25000 0.25000 0.25000  MULT= 2  ZZ= 45.000  Rh1       

       LMMAX  6
       LM=   0 0  4 0  4 4  6 0  6 4 -3 2

:CHA003: TOTAL VALENCE CHARGE INSIDE SPHERE   3 =   6.3040    (RMT=  2.4300 )
:PCS003: PARTIAL CHARGES SPHERE =  3 S,P,D,F,      D-EG,D-T2G 
:QTL003: 0.1850 3.1648 2.9367 0.0144 0.0000 0.0000 0.0000 0.9671 1.9695 0.0000 0.0000 0.0000
        Q-s-low E-s-low   Q-p-low E-p-low   Q-d-low E-d-low   Q-f-low E-f-low
:EPL003:  0.0002 -3.1001    2.9803 -2.7346    0.0004 -3.1073    0.0002 -3.0991
        Q-s-hi  E-s-hi    Q-p-hi  E-p-hi    Q-d-hi  E-d-hi    Q-f-hi  E-f-hi 
:EPH003:  0.1849  0.2992    0.1845  0.4579    2.9362  0.4342    0.0142  0.5052

:CHA  : TOTAL VALENCE CHARGE INSIDE UNIT CELL =      24.769136

:SUM  : SUM OF EIGENVALUES =         -29.828575454


        1.ATOM      Fe1                   5 CORE STATES
:1S 001: 1S                -513.181273032 Ry
:2S 001: 2S                 -59.164885473 Ry
:2PP001: 2P*                -50.851842761 Ry
:2P 001: 2P                 -49.935722000 Ry
:3S 001: 3S                  -5.915978917 Ry

        2.ATOM      Fe2                   5 CORE STATES
:1S 002: 1S                -513.181482349 Ry
:2S 002: 2S                 -59.165086420 Ry
:2PP002: 2P*                -50.852045566 Ry
:2P 002: 2P                 -49.935924621 Ry
:3S 002: 3S                  -5.916120764 Ry

        3.ATOM      Rh1                  10 CORE STATES
:1S 003: 1S               -1691.501045880 Ry
:2S 003: 2S                -244.402036248 Ry
:2PP003: 2P*               -226.209988178 Ry
:2P 003: 2P                -215.581074302 Ry
:3S 003: 3S                 -42.923836244 Ry
:3PP003: 3P*                -35.806609048 Ry
:3P 003: 3P                 -33.977556769 Ry
:3DD003: 3D*                -21.383400257 Ry
:3D 003: 3D                 -21.022640317 Ry
:4S 003: 4S                  -5.158279495 Ry

        1.ATOM      Fe1                   5 CORE STATES
:1S 001: 1S                -513.181811761 Ry
:2S 001: 2S                 -59.046444016 Ry
:2PP001: 2P*                -50.763876247 Ry
:2P 001: 2P                 -49.845161569 Ry
:3S 001: 3S                  -5.647438243 Ry

        2.ATOM      Fe2                   5 CORE STATES
:1S 002: 1S                -513.182021068 Ry
:2S 002: 2S                 -59.046642956 Ry
:2PP002: 2P*                -50.764077561 Ry
:2P 002: 2P                 -49.845362656 Ry
:3S 002: 3S                  -5.647573892 Ry

        3.ATOM      Rh1                  10 CORE STATES
:1S 003: 1S               -1691.501343316 Ry
:2S 003: 2S                -244.387452389 Ry
:2PP003: 2P*               -226.199594782 Ry
:2P 003: 2P                -215.569897493 Ry
:3S 003: 3S                 -42.916667926 Ry
:3PP003: 3P*                -35.798147775 Ry
:3P 003: 3P                 -33.969426675 Ry
:3DD003: 3D*                -21.370273526 Ry
:3D 003: 3D                 -21.009571108 Ry
:4S 003: 4S                  -5.095970734 Ry
:CINT001 Core Integral Atom   1 Up    5.999661 Dn   5.999609 Total  11.999270
:CINT002 Core Integral Atom   2 Up    5.999661 Dn   5.999609 Total  11.999270
:CINT003 Core Integral Atom   3 Up   14.998745 Dn  14.998709 Total  29.997454

       DENSITY AT NUCLEUS
        JATOM        VALENCE       SEMI-CORE          CORE           TOTAL
:RTO001:   1        6.959692        0.000000    15302.778441    15309.738133
:RTO002:   2        6.960207        0.000000    15302.779851    15309.740059
:RTO003:   3       23.054737        0.000000   155315.225007   155338.279744

       HYPERFINE FIELDS FOR THOMSON RADIUS
:HFF001:          213.934           0.000        -390.786        -176.851 (KGAUSS)
:HFF002:          213.971           0.000        -390.800        -176.829 (KGAUSS)
:HFF003:         -211.216           0.000        -285.793        -497.010 (KGAUSS)
     
       CHARGES OF NEW CHARGE DENSITY
:NTO   : INTERSTITIAL     UP =     2.207574 DN =     2.284419 TOT =     4.491992
:NPC   : PW Pseudocharge  UP =     5.745592 DN =     4.994901 TOT =    10.740493
:NTO001: CHARGE SPHERE  1 UP =    14.161243 DN =    10.937379 TOT =    25.098622
:NTO002: CHARGE SPHERE  2 UP =    14.161448 DN =    10.938506 TOT =    25.099955
:NTO003: CHARGE SPHERE  3 UP =    22.348685 DN =    21.302721 TOT =    43.651406

:NEC01: NUCLEAR AND ELECTRONIC CHARGE    142.00000   141.99338
     
       CHARGES OF OLD CHARGE DENSITY
:OTO   : INTERSTITIAL     UP =     2.203523 DN =     2.273090 TOT =     4.476613
:OPC   : PW Pseudocharge  UP =     5.737619 DN =     5.002654 TOT =    10.740274
:OTO001: CHARGE SPHERE  1 UP =    14.156652 DN =    10.958364 TOT =    25.115016
:OTO002: CHARGE SPHERE  2 UP =    14.156636 DN =    10.958277 TOT =    25.114913
:OTO003: CHARGE SPHERE  3 UP =    22.342374 DN =    21.304355 TOT =    43.646729

:NEC02: NUCLEAR AND ELECTRONIC CHARGE    142.00000   142.00000
     
       CONVERGENCE TEST
:DTO001: DIFFERENCE SPHERE  1 UP =  0.0041886 DN =  0.0276681 TOT =  0.0318567
:DTO002: DIFFERENCE SPHERE  2 UP =  0.0044399 DN =  0.0263987 TOT =  0.0308387
:DTO003: DIFFERENCE SPHERE  3 UP =  0.0076267 DN =  0.0057941 TOT =  0.0134209

:DIS  :  CHARGE DISTANCE       ( 0.0276681 for atom    1 spin 2)      0.0447686
 PW Mixed is           49
 
******************************************************
* MULTISECANT MIXING VER9 RELEASE 10.4.0              *
* Standard Mode with controls                        *
* Fixed density scale                                *
* Regularization       1.000E-04                     *
* Trust Upper Limit    5.000E+00                     *
* Max Number of Memory Steps    8                    *
******************************************************
 
:PWTMP   1.1765E+02  4.5917E+02  3.5807E+02
:PLANE:  PW TOTAL      2.3682 DISTAN   9.49E-03  4.01E-01 %
:CHARG:  CLM/ATOM    212.0455 DISTAN   1.43E-02  6.75E-03 %
 
Step History
        DMIX         DMIXT        Red     Pred      Trust     Lambda    MagRel    MagAbs     Beta
  2   2.0386E-02   2.0386E-02  6.82E-01  1.00E+00 -1.00E+01  1.00E+00  2.04E-02  3.92E-02  1.00E+00
  3   2.7975E-02   2.7975E-02  9.60E-01  1.00E+00 -1.00E+01  5.40E-02  2.80E-02  3.67E-02  1.00E+00
  4   4.7144E-02   4.7144E-02  9.18E-01  9.97E-01  1.67E-01  1.38E+00  4.74E-02  5.98E-02  9.83E-01
  5   1.1786E-01   8.7070E-02  8.47E-01  7.84E-01  2.81E-01  6.13E-01  2.08E-01  2.41E-01  1.00E+00
  6   8.8848E-02   8.8848E-02  7.43E-01  8.36E-01  9.26E-01  2.52E-01  4.05E-01  3.96E-01  1.00E+00
  7   2.0870E-01   2.0870E-01  4.88E-01  4.86E-01  1.26E+00  7.04E-01  5.13E-01  3.73E-01  1.00E+00
  8   3.5000E-01   3.5000E-01  5.12E-01  5.42E-01  3.76E+00  2.83E-01  1.17E+00  4.17E-01  1.00E+00
  9   3.5000E-01   3.5000E-01  5.45E-01  1.66E-01  5.70E+00  7.81E-01  4.40E-01  8.00E-02  9.82E-01
 10   2.7816E-01   2.7816E-01 -1.00E+00  2.55E-01  7.59E+00  1.00E+00  5.79E-01  5.73E-02  1.00E+00
:JACOBIANS    1.219E+00   1.272E+00
  
:NORMS:  1/Froebius, Min, Max, Used   0.1142E+01  0.6193E+00  0.1298E+01  0.1298E+01
:INFO :  Number of Memory Steps    8 Skipping    1
:INFO :  SLambda=    0.8776027933  Max    0.8776027933
:PREDicted Charge, CTotal, PW Trust    8.972E-03   1.887E-02   1.336E-02
:PREDicted DMix, Beta, BLim   4.6776E-01  1.2137E+00  1.0199E+00

Eigenvalues, unscaled except for SY+YY
   #     SY Real        SY Imag          SS             YY         SY+YY Real      SY+YY Imag
   1   6.614451E+00   0.000000E+00   9.436137E+00   5.600529E+00   1.138373E+01   0.000000E+00
   2   9.466395E-01   0.000000E+00   8.515579E-01   1.357552E+00   2.152008E+00   0.000000E+00
   3   2.819187E-01   0.000000E+00   8.835897E-02   8.693234E-01   1.158990E+00   0.000000E+00
   4   6.079194E-02   0.000000E+00   5.538139E-02   1.059209E-01   1.451024E-01   0.000000E+00
   5   1.375860E-02   0.000000E+00   4.171803E-03   5.633936E-02   9.860246E-02   0.000000E+00
   6   6.376255E-03   0.000000E+00   1.472409E-03   1.020731E-02   1.550621E-02   0.000000E+00
   7   4.291606E-05   0.000000E+00   1.571058E-05   1.201572E-04   1.645410E-04   0.000000E+00
   8   1.625637E-06   0.000000E+00   4.175697E-07   7.230187E-06   8.764489E-06   0.000000E+00
 
:INFO :  Singular value  1.143E+01 Weight  1.000E+00 Projection  9.983E-03
:INFO :  Singular value  2.149E+00 Weight  1.000E+00 Projection -1.815E-02
:INFO :  Singular value  1.156E+00 Weight  1.000E+00 Projection -8.927E-03
:INFO :  Singular value  1.452E-01 Weight  1.000E+00 Projection  2.090E-02
:INFO :  Singular value  9.864E-02 Weight  1.000E+00 Projection  2.048E-02
:INFO :  Singular value  1.552E-02 Weight  9.987E-01 Projection -2.560E-01
:INFO :  Singular value  1.642E-04 Weight  7.913E-02 Projection  1.541E-02
:INFO :  Singular value  8.763E-06 Weight  2.448E-04 Projection -1.065E-04
:RANK :  ACTIVE   6.08/8  =  75.98 % ; YY RANK   6.04/8  =  75.51 %
 
:BLIM :  VZERO Control Off
:TRUST:  Step 1.01E+01  Charge 1.02E-01 (e) CTO  2.58E-01 (e) PW  3.39E-01 (e)
:DIRM :  MEMORY  8/8  SCALE   1.000 RED  0.44 PRED  0.25 NEXT  0.14 
:TRAVE:  Charge 1.17E-02 (e) CTO  2.79E-02 (e) PW  3.71E-02 (e)
:DIRP :  |MSR1|= 3.016E-03 |PRATT|= 4.744E-03 ANGLE=  26.4 DEGREES
:DIRQ :  |MSR1|= 2.221E-02 |PRATT|= 4.293E-02 ANGLE=  32.8 DEGREES
:DIRT :  |MSR1|= 2.241E-02 |PRATT|= 4.319E-02 ANGLE=  32.7 DEGREES
:MIX  :   MSE1   REGULARIZATION:  5.60E-04 GREED: 0.35000  Newton 1.00  0.5189                
     
       CHARGES OF MIXED CHARGE DENSITY
:CTO   : INTERSTITIAL     UP =     2.206032 DN =     2.278874 TOT =     4.484906
:CPC   : PW Pseudocharge  UP =     5.749244 DN =     4.997672 TOT =    10.746917
:CTO001: CHARGE SPHERE  1 UP =    14.161106 DN =    10.949863 TOT =    25.110969
:CTO002: CHARGE SPHERE  2 UP =    14.161377 DN =    10.951345 TOT =    25.112722
:CTO003: CHARGE SPHERE  3 UP =    22.348164 DN =    21.297537 TOT =    43.645701

       SPIN MAGNETIC MOMENTS OF MIXED CHARGE DENSITY
:MMINT:  MAGNETIC MOMENT IN INTERSTITIAL  =   -0.07284
:MMI001: MAGNETIC MOMENT IN SPHERE   1    =    3.21124
:MMI002: MAGNETIC MOMENT IN SPHERE   2    =    3.21003
:MMI003: MAGNETIC MOMENT IN SPHERE   3    =    1.05063
:MMTOT:  SPIN MAGNETIC MOMENT IN CELL     =    8.44969

:NEC03: NUCLEAR AND ELECTRONIC CHARGE    142.00000   142.00000

PW CHANGE     H    K    L      Current       Change    Residue
:PUP001:      0    0    0  2.22170763E-02  3.947E-05  6.630E-05
:PUP002:     -1   -1   -1 -9.52236069E-08 -1.010E-07 -7.823E-08
:PUP003:      0    0   -2 -5.92835263E-03 -3.791E-05 -1.743E-05
:PUP004:      0   -2   -2  2.86827435E-03  6.094E-07 -4.085E-05
:PUP005:     -1   -1   -3 -6.61312326E-07 -7.009E-07 -5.414E-07
:PUP006:     -2   -2   -2  2.56932632E-03  2.186E-05  2.041E-05
:PUP007:      0    0   -4 -6.41787956E-03 -2.711E-05 -2.655E-05
:PUP008:     -1   -3   -3 -2.33088681E-07 -2.465E-07 -1.915E-07
:PUP009:      0   -2   -4  6.25259581E-03  7.032E-05  5.288E-05
:PUP010:     -2   -2   -4 -1.25305317E-02 -1.194E-04 -8.266E-05
:PUP011:     -3   -3   -3 -3.19336119E-09 -3.416E-09 -2.582E-09
:PUP012:     -1   -1   -5  3.90059002E-08  4.163E-08  3.165E-08
  
:PDN001:      0    0    0  2.03215540E-02  2.239E-06  3.994E-05
:PDN002:     -1   -1   -1 -3.00565309E-06 -3.184E-06 -2.463E-06
:PDN003:      0    0   -2 -7.81822344E-03  1.053E-05 -2.058E-05
:PDN004:      0   -2   -2 -3.06221443E-03 -1.918E-04 -3.125E-04
:PDN005:     -1   -1   -3  1.96485445E-06  2.079E-06  1.609E-06
:PDN006:     -2   -2   -2  2.68088812E-03 -2.176E-05 -1.564E-05
:PDN007:      0    0   -4 -5.80958060E-03 -9.312E-06 -5.857E-06
:PDN008:     -1   -3   -3  1.23716269E-06  1.310E-06  1.014E-06
:PDN009:      0   -2   -4  6.95062858E-03 -1.292E-05 -6.168E-07
:PDN010:     -2   -2   -4 -6.27659069E-03 -3.694E-06  5.269E-05
:PDN011:     -3   -3   -3  5.89522147E-09  6.227E-09  4.862E-09
:PDN012:     -1   -1   -5  5.87227121E-07  6.208E-07  4.807E-07

:ENE  : ********** TOTAL ENERGY IN Ry =       -24232.22788833

