
:LABEL1: Calculations in /home/cmueller/wien/FZU/src/FeRh/FFM/1000k
:LABEL2: on cv036 at Wed Mar 12 12:03:44 PM CET 2025
:LABEL3: using WIEN2k_19.1 (Release 25/6/2019) in /home/cmueller/WIENROOT
:LABEL4: using the command: runsp_lapw
 Flat Integration
 New Mode for Coulomb Integral
 Consistent 3/8+Simpson combinations
 Extension of core to zero
 LDM version in phi
 Fifth-order quadrature in outwin


            ---------
:ITE001:  1. ITERATION
            ---------

:NATO :    3 INDEPENDENT AND    4 TOTAL ATOMS IN UNITCELL
       SUBSTANCE: FeRh                                                        

       LATTICE                      = F   
:POT  : POTENTIAL OPTION EX_PBE EC_PBE VX_PBE VC_PBE
:LAT  : LATTICE CONSTANTS= 11.27222 11.27222 11.27222    1.571    1.571    1.571
:VOL  : UNIT CELL VOLUME =     358.07036
       MODE OF CALCULATION IS       = RELA
       SPINPOLARIZED CALCULATION
:IFFT  : FFT-parameters:   90   90   90 Factor: 2.00


   CONVERGENCE PARAMETER FOR PSEUDOCHARGE: NCON=  9
   MAXIMAL VALUE OF RMT(JATOM)*ABSK(NKK) : RK  =29.05063


:VKCOUL :  VK-COUL convergence: 0.126E-05
       ATOMNUMBER=  1 Fe1        VCOUL-ZERO =  0.65836E+00
       ATOMNUMBER=  2 Fe2        VCOUL-ZERO =  0.65836E+00
       ATOMNUMBER=  3 Rh1        VCOUL-ZERO =  0.62973E+00
:FIT001: LUSE= 13 SIGMA OF V-XC FIT FOR ATOM  1  0.7350795E-02
:FIT001: LUSE= 13 SIGMA OF V-XC FIT FOR ATOM  1  0.2536863E-02
:FIT002: LUSE= 13 SIGMA OF V-XC FIT FOR ATOM  2  0.7350795E-02
:FIT002: LUSE= 13 SIGMA OF V-XC FIT FOR ATOM  2  0.2536863E-02
:FIT003: LUSE= 13 SIGMA OF V-XC FIT FOR ATOM  3  0.1535975E-02
:FIT003: LUSE= 13 SIGMA OF V-XC FIT FOR ATOM  3  0.2664318E-03
:DEN  : DENSITY INTEGRAL  =         -9889.60555609   (Ry)
       ELS_POTENTIAL_AT Z=0 and Z=0.5:  -0.23886  -0.23886
       ELS_POTENTIAL_AT Y=0 and Y=0.5:   0.00000   0.00000
:VZERO:v0,v0c,v0x  -1.05054  -0.23886  -0.81168 v5,v5c,v5x  -1.05054  -0.23886  -0.81168
:VZERY:v0,v0c,v0x  -0.92344   0.00000  -0.92344 v5,v5c,v5x  -0.92344   0.00000  -0.92344
:VZERX:v0,v0c,v0x  -0.92344   0.00000  -0.92344 v5,v5c,v5x  -0.92344   0.00000  -0.92344
:LMAX-WF:   10   Non-Spherical LMAX:   4

          ATOMIC SPHERE DEPENDENT PARAMETERS FOR ATOM  Fe1       
:e__0001: OVERALL ENERGY PARAMETER IS    0.3000
          OVERALL BASIS SET ON ATOM IS LAPW
:E1_0001: E( 1)=    0.3000
             APW+lo
:E1_0001: E( 1)=   -3.1653   E(BOTTOM)=   -3.198   E(TOP)=   -3.132  1  2   181
             LOCAL ORBITAL
:E2_0001: E( 2)=    0.6147   E(BOTTOM)=    0.370   E(TOP)=    0.859  0  1   131
             APW+lo
:E0_0001: E( 0)=    0.3000
             APW+lo

          ATOMIC SPHERE DEPENDENT PARAMETERS FOR ATOM  Fe2       
:e__0002: OVERALL ENERGY PARAMETER IS    0.3000
          OVERALL BASIS SET ON ATOM IS LAPW
:E1_0002: E( 1)=    0.3000
             APW+lo
:E1_0002: E( 1)=   -3.1653   E(BOTTOM)=   -3.198   E(TOP)=   -3.132  1  2   181
             LOCAL ORBITAL
:E2_0002: E( 2)=    0.6147   E(BOTTOM)=    0.370   E(TOP)=    0.859  0  1   131
             APW+lo
:E0_0002: E( 0)=    0.3000
             APW+lo

          ATOMIC SPHERE DEPENDENT PARAMETERS FOR ATOM  Rh1       
:e__0003: OVERALL ENERGY PARAMETER IS    0.3000
          OVERALL BASIS SET ON ATOM IS LAPW
:E1_0003: E( 1)=    0.3000
             APW+lo
:E1_0003: E( 1)=   -2.6264   E(BOTTOM)=   -2.727   E(TOP)=   -2.526  2  3   169
             LOCAL ORBITAL
:E2_0003: E( 2)=    0.3000   E(BOTTOM)=    0.162   E(TOP)= -200.000  1 -1    93
             APW+lo
:E0_0003: E( 0)=    0.3000
             APW+lo

       K=   0.00000   0.00000   0.00000            1
:RKM  : MATRIX SIZE   185LOs:  48  RKM= 6.64  WEIGHT= 1.00  PGR:    
       EIGENVALUES ARE:
:EIG00001:      -3.1592692   -3.1592692   -3.1592692   -3.1573674   -3.1573674
:EIG00006:      -3.1573674   -2.6092520   -2.6092520   -2.6092520   -2.6012618
:EIG00011:      -2.6012618   -2.6012618    0.0702128    0.3403113    0.3403113
:EIG00016:       0.4127452    0.4127452    0.4127452    0.5386641    0.5386641
:EIG00021:       0.5386641    0.5742451    0.5742451    0.5742451    0.7150896
:EIG00026:       0.7150896    0.7283402    0.7283402    0.7773508    0.7773508
:EIG00031:       0.8113171    0.8113171    0.8113171    1.2586075    1.3237486
:EIG00036:       1.3237486    1.3237486    1.3308865    1.3308865    1.3308865
:EIG00041:       1.4580028    1.4580028    1.4580028    1.4995530
       ********************************************************

:KPT   :      NUMBER OF K-POINTS:    47
:LMAX-WF:   10   Non-Spherical LMAX:   4

          ATOMIC SPHERE DEPENDENT PARAMETERS FOR ATOM  Fe1       
:e__0001: OVERALL ENERGY PARAMETER IS    0.3000
          OVERALL BASIS SET ON ATOM IS LAPW
:E1_0001: E( 1)=    0.3000
             APW+lo
:E1_0001: E( 1)=   -2.9761   E(BOTTOM)=   -3.010   E(TOP)=   -2.942  1  2   199
             LOCAL ORBITAL
:E2_0001: E( 2)=    0.5413   E(BOTTOM)=    0.541   E(TOP)= -200.000  0 -1    95
             APW+lo
:E0_0001: E( 0)=    0.3000
             APW+lo

          ATOMIC SPHERE DEPENDENT PARAMETERS FOR ATOM  Fe2       
:e__0002: OVERALL ENERGY PARAMETER IS    0.3000
          OVERALL BASIS SET ON ATOM IS LAPW
:E1_0002: E( 1)=    0.3000
             APW+lo
:E1_0002: E( 1)=   -2.9761   E(BOTTOM)=   -3.010   E(TOP)=   -2.942  1  2   199
             LOCAL ORBITAL
:E2_0002: E( 2)=    0.5413   E(BOTTOM)=    0.541   E(TOP)= -200.000  0 -1    95
             APW+lo
:E0_0002: E( 0)=    0.3000
             APW+lo

          ATOMIC SPHERE DEPENDENT PARAMETERS FOR ATOM  Rh1       
:e__0003: OVERALL ENERGY PARAMETER IS    0.3000
          OVERALL BASIS SET ON ATOM IS LAPW
:E1_0003: E( 1)=    0.3000
             APW+lo
:E1_0003: E( 1)=   -2.5251   E(BOTTOM)=   -2.624   E(TOP)=   -2.426  2  3   176
             LOCAL ORBITAL
:E2_0003: E( 2)=    0.3000   E(BOTTOM)=    0.279   E(TOP)= -200.000  1 -1    88
             APW+lo
:E0_0003: E( 0)=    0.3000
             APW+lo

       K=   0.00000   0.00000   0.00000            1
:RKM  : MATRIX SIZE   185LOs:  48  RKM= 6.64  WEIGHT= 1.00  PGR:    
       EIGENVALUES ARE:
:EIG00001:      -2.9699321   -2.9699321   -2.9699321   -2.9679656   -2.9679656
:EIG00006:      -2.9679656   -2.5081439   -2.5081439   -2.5081439   -2.5001318
:EIG00011:      -2.5001318   -2.5001318    0.2185870    0.4810755    0.4810755
:EIG00016:       0.5433070    0.5433070    0.5433070    0.7099103    0.7099103
:EIG00021:       0.7099103    0.7183062    0.7183062    0.7183062    0.8769347
:EIG00026:       0.8769347    0.8912694    0.8912694    0.9143182    0.9143182
:EIG00031:       0.9685508    0.9685508    0.9685508    1.4095004    1.4799114
:EIG00036:       1.4799114    1.4799114    1.5019596    1.5019596    1.5019596
:EIG00041:       1.5990375    1.5990375    1.5990375    1.6298367
       ********************************************************

:KPT   :      NUMBER OF K-POINTS:    47
:GAP (global)   :    0.0    Ry =     0.0   eV (metal)
:GAP (this spin):    0.0    Ry =     0.0   eV (metal)
         Bandranges (emin - emax) and occupancy:
:BAN00025:  25    0.631250    0.716015  1.00000000
:BAN00026:  26    0.646806    0.722029  1.00000000
:BAN00027:  27    0.668515    0.728340  1.00000000
:BAN00028:  28    0.682427    0.730241  1.00000000
:BAN00029:  29    0.705493    0.777351  1.00000000
:BAN00030:  30    0.717952    0.777351  1.00000000
:BAN00031:  31    0.723767    0.811317  1.00000000
:BAN00032:  32    0.743920    0.811317  1.00000000
:BAN00033:  33    0.755365    0.827763  1.00285341
:BAN00034:  34    0.783376    1.258608  0.28154450
:BAN00035:  35    0.830235    1.323749  0.00008844
:BAN00036:  36    0.847646    1.323749  0.00000000
:BAN00037:  37    1.269862    1.461318  0.00000000
:BAN00038:  38    1.281209    1.576901  0.00000000
:BAN00039:  39    1.323316    1.799638  0.00000000
:BAN00040:  40    1.330886    1.799638  0.00000000
        Energy to separate low and high energystates:    0.02021


:NOE  : NUMBER OF ELECTRONS          =   58.000

:FER  : F E R M I - ENERGY(TETRAH.M.)=   0.8328187991
:GMA  : POTENTIAL AND CHARGE CUT-OFF  12.00 Ry**.5

:POS001: ATOM    1 X,Y,Z = 0.00000 0.00000 0.00000  MULT= 1  ZZ= 26.000  Fe1       

       LMMAX  5
       LM=   0 0  4 0  4 4  6 0  6 4

:CHA001: TOTAL VALENCE CHARGE INSIDE SPHERE   1 =   8.0240    (RMT=  2.4300 )
:PCS001: PARTIAL CHARGES SPHERE =  1 S,P,D,F,      D-EG,D-T2G 
:QTL001: 0.2564 3.2966 4.4275 0.0318 0.0000 0.0000 0.0000 1.8429 2.5846 0.0000 0.0000 0.0000
        Q-s-low E-s-low   Q-p-low E-p-low   Q-d-low E-d-low   Q-f-low E-f-low
:EPL001:  0.0006 -2.6147    2.9950 -3.1580    0.0014 -2.6103    0.0006 -2.6109
        Q-s-hi  E-s-hi    Q-p-hi  E-p-hi    Q-d-hi  E-d-hi    Q-f-hi  E-f-hi 
:EPH001:  0.2558  0.3427    0.3016  0.5011    4.4261  0.6372    0.0313  0.5918

:POS002: ATOM    2 X,Y,Z = 0.50000 0.00000 0.00000  MULT= 1  ZZ= 26.000  Fe2       

       LMMAX  5
       LM=   0 0  4 0  4 4  6 0  6 4

:CHA002: TOTAL VALENCE CHARGE INSIDE SPHERE   2 =   8.0240    (RMT=  2.4300 )
:PCS002: PARTIAL CHARGES SPHERE =  2 S,P,D,F,      D-EG,D-T2G 
:QTL002: 0.2564 3.2966 4.4275 0.0318 0.0000 0.0000 0.0000 1.8429 2.5846 0.0000 0.0000 0.0000
        Q-s-low E-s-low   Q-p-low E-p-low   Q-d-low E-d-low   Q-f-low E-f-low
:EPL002:  0.0006 -2.6147    2.9950 -3.1580    0.0014 -2.6103    0.0006 -2.6109
        Q-s-hi  E-s-hi    Q-p-hi  E-p-hi    Q-d-hi  E-d-hi    Q-f-hi  E-f-hi 
:EPH002:  0.2558  0.3427    0.3016  0.5011    4.4261  0.6372    0.0313  0.5918

:POS003: ATOM    3 X,Y,Z = 0.25000 0.25000 0.25000  MULT= 2  ZZ= 45.000  Rh1       

       LMMAX  6
       LM=   0 0  4 0  4 4  6 0  6 4 -3 2

:CHA003: TOTAL VALENCE CHARGE INSIDE SPHERE   3 =   7.2918    (RMT=  2.4300 )
:PCS003: PARTIAL CHARGES SPHERE =  3 S,P,D,F,      D-EG,D-T2G 
:QTL003: 0.1917 3.1925 3.8718 0.0277 0.0000 0.0000 0.0000 1.5582 2.3136 0.0000 0.0000 0.0000
        Q-s-low E-s-low   Q-p-low E-p-low   Q-d-low E-d-low   Q-f-low E-f-low
:EPL003:  0.0002 -3.0688    2.9783 -2.6059    0.0004 -3.0824    0.0002 -3.0798
        Q-s-hi  E-s-hi    Q-p-hi  E-p-hi    Q-d-hi  E-d-hi    Q-f-hi  E-f-hi 
:EPH003:  0.1916  0.3445    0.2142  0.5174    3.8714  0.5829    0.0275  0.6095

:CHA  : TOTAL VALENCE CHARGE INSIDE UNIT CELL =      33.284486

:SUM  : SUM OF EIGENVALUES =         -22.283854394



   QTL-B VALUE .EQ.    2.71234   in Band of energy    0.77735   ATOM=    3   L=  2
    Most likely no ghostbands, but adjust Energy-parameters for this ATOM and L


:WARN : QTL-B value eq.   2.71 in Band of energy   0.77735  ATOM=    3  L=  2
:WARN : You should change the E-parameter for this atom and L-value in case.in1 (or try the -in1new switch)
:GAP (global)   :    0.0    Ry =     0.0   eV (metal)
:GAP (this spin):    0.0    Ry =     0.0   eV (metal)
         Bandranges (emin - emax) and occupancy:
:BAN00017:  17    0.543307    0.640537  1.00000000
:BAN00018:  18    0.543307    0.640537  1.00000000
:BAN00019:  19    0.587698    0.709910  1.00000000
:BAN00020:  20    0.635399    0.715633  1.00000000
:BAN00021:  21    0.640390    0.715633  1.00000000
:BAN00022:  22    0.640390    0.768749  1.00000000
:BAN00023:  23    0.641839    0.806301  1.00000000
:BAN00024:  24    0.641839    0.823750  1.00000000
:BAN00025:  25    0.786650    0.877567  0.52453764
:BAN00026:  26    0.817493    0.882898  0.18762888
:BAN00027:  27    0.824056    0.891269  0.00334714
:BAN00028:  28    0.844942    0.892055  0.00000000
:BAN00029:  29    0.866469    0.920365  0.00000000
:BAN00030:  30    0.880589    0.922706  0.00000000
:BAN00031:  31    0.881614    0.968551  0.00000000
:BAN00032:  32    0.905780    0.968551  0.00000000
        Energy to separate low and high energystates:    0.16859


:NOE  : NUMBER OF ELECTRONS          =   58.000

:FER  : F E R M I - ENERGY(TETRAH.M.)=   0.8328187991
:GMA  : POTENTIAL AND CHARGE CUT-OFF  12.00 Ry**.5

:POS001: ATOM    1 X,Y,Z = 0.00000 0.00000 0.00000  MULT= 1  ZZ= 26.000  Fe1       

       LMMAX  5
       LM=   0 0  4 0  4 4  6 0  6 4

:CHA001: TOTAL VALENCE CHARGE INSIDE SPHERE   1 =   5.0713    (RMT=  2.4300 )
:PCS001: PARTIAL CHARGES SPHERE =  1 S,P,D,F,      D-EG,D-T2G 
:QTL001: 0.2344 3.2566 1.5497 0.0231 0.0000 0.0000 0.0000 0.4892 1.0605 0.0000 0.0000 0.0000
        Q-s-low E-s-low   Q-p-low E-p-low   Q-d-low E-d-low   Q-f-low E-f-low
:EPL001:  0.0005 -2.5132    2.9947 -2.9686    0.0013 -2.5089    0.0006 -2.5092
        Q-s-hi  E-s-hi    Q-p-hi  E-p-hi    Q-d-hi  E-d-hi    Q-f-hi  E-f-hi 
:EPH001:  0.2339  0.4544    0.2619  0.6096    1.5484  0.6712    0.0225  0.6632

:POS002: ATOM    2 X,Y,Z = 0.50000 0.00000 0.00000  MULT= 1  ZZ= 26.000  Fe2       

       LMMAX  5
       LM=   0 0  4 0  4 4  6 0  6 4

:CHA002: TOTAL VALENCE CHARGE INSIDE SPHERE   2 =   5.0713    (RMT=  2.4300 )
:PCS002: PARTIAL CHARGES SPHERE =  2 S,P,D,F,      D-EG,D-T2G 
:QTL002: 0.2344 3.2566 1.5497 0.0231 0.0000 0.0000 0.0000 0.4892 1.0605 0.0000 0.0000 0.0000
        Q-s-low E-s-low   Q-p-low E-p-low   Q-d-low E-d-low   Q-f-low E-f-low
:EPL002:  0.0005 -2.5132    2.9947 -2.9686    0.0013 -2.5089    0.0006 -2.5092
        Q-s-hi  E-s-hi    Q-p-hi  E-p-hi    Q-d-hi  E-d-hi    Q-f-hi  E-f-hi 
:EPH002:  0.2339  0.4544    0.2619  0.6096    1.5484  0.6712    0.0225  0.6632

:POS003: ATOM    3 X,Y,Z = 0.25000 0.25000 0.25000  MULT= 2  ZZ= 45.000  Rh1       

       LMMAX  6
       LM=   0 0  4 0  4 4  6 0  6 4 -3 2

:CHA003: TOTAL VALENCE CHARGE INSIDE SPHERE   3 =   6.1229    (RMT=  2.4300 )
:PCS003: PARTIAL CHARGES SPHERE =  3 S,P,D,F,      D-EG,D-T2G 
:QTL003: 0.1860 3.1660 2.7524 0.0152 0.0000 0.0000 0.0000 0.8959 1.8565 0.0000 0.0000 0.0000
        Q-s-low E-s-low   Q-p-low E-p-low   Q-d-low E-d-low   Q-f-low E-f-low
:EPL003:  0.0002 -2.9032    2.9791 -2.5047    0.0004 -2.9112    0.0002 -2.9073
        Q-s-hi  E-s-hi    Q-p-hi  E-p-hi    Q-d-hi  E-d-hi    Q-f-hi  E-f-hi 
:EPH003:  0.1858  0.4746    0.1869  0.6347    2.7520  0.6236    0.0150  0.6821

:CHA  : TOTAL VALENCE CHARGE INSIDE UNIT CELL =      24.715514

:SUM  : SUM OF EIGENVALUES =         -25.001976594



   QTL-B VALUE .EQ.    2.84959   in Band of energy    0.84384   ATOM=    2   L=  2
    Most likely no ghostbands, but adjust Energy-parameters for this ATOM and L


:WARN : QTL-B value eq.   2.85 in Band of energy   0.84384  ATOM=    2  L=  2
:WARN : You should change the E-parameter for this atom and L-value in case.in1 (or try the -in1new switch)

        1.ATOM      Fe1                   5 CORE STATES
:1S 001: 1S                -512.918296422 Ry
:2S 001: 2S                 -58.867098991 Ry
:2PP001: 2P*                -50.560163463 Ry
:2P 001: 2P                 -49.643551060 Ry
:3S 001: 3S                  -5.645944693 Ry

        2.ATOM      Fe2                   5 CORE STATES
:1S 002: 1S                -512.918296422 Ry
:2S 002: 2S                 -58.867098991 Ry
:2PP002: 2P*                -50.560163463 Ry
:2P 002: 2P                 -49.643551060 Ry
:3S 002: 3S                  -5.645944693 Ry

        3.ATOM      Rh1                  10 CORE STATES
:1S 003: 1S               -1691.217931711 Ry
:2S 003: 2S                -244.120073391 Ry
:2PP003: 2P*               -225.926914533 Ry
:2P 003: 2P                -215.298232992 Ry
:3S 003: 3S                 -42.657850310 Ry
:3PP003: 3P*                -35.540511067 Ry
:3P 003: 3P                 -33.712000604 Ry
:3DD003: 3D*                -21.116674177 Ry
:3D 003: 3D                 -20.756126950 Ry
:4S 003: 4S                  -4.950238540 Ry

        1.ATOM      Fe1                   5 CORE STATES
:1S 001: 1S                -512.917485201 Ry
:2S 001: 2S                 -58.785188684 Ry
:2PP001: 2P*                -50.499094941 Ry
:2P 001: 2P                 -49.580706911 Ry
:3S 001: 3S                  -5.453831662 Ry

        2.ATOM      Fe2                   5 CORE STATES
:1S 002: 1S                -512.917485201 Ry
:2S 002: 2S                 -58.785188684 Ry
:2PP002: 2P*                -50.499094941 Ry
:2P 002: 2P                 -49.580706911 Ry
:3S 002: 3S                  -5.453831662 Ry

        3.ATOM      Rh1                  10 CORE STATES
:1S 003: 1S               -1691.216784672 Ry
:2S 003: 2S                -244.099243378 Ry
:2PP003: 2P*               -225.911752519 Ry
:2P 003: 2P                -215.282016486 Ry
:3S 003: 3S                 -42.646082589 Ry
:3PP003: 3P*                -35.526934971 Ry
:3P 003: 3P                 -33.698849186 Ry
:3DD003: 3D*                -21.096779061 Ry
:3D 003: 3D                 -20.736291231 Ry
:4S 003: 4S                  -4.855803339 Ry
:CINT001 Core Integral Atom   1 Up    5.999606 Dn   5.999592 Total  11.999198
:CINT002 Core Integral Atom   2 Up    5.999606 Dn   5.999592 Total  11.999198
:CINT003 Core Integral Atom   3 Up   14.998594 Dn  14.998639 Total  29.997233

       DENSITY AT NUCLEUS
        JATOM        VALENCE       SEMI-CORE          CORE           TOTAL
:RTO001:   1        7.295664        0.000000    15301.555248    15308.850912
:RTO002:   2        7.295664        0.000000    15301.555248    15308.850912
:RTO003:   3       24.726384        0.000000   155310.158130   155334.884515

       HYPERFINE FIELDS FOR THOMSON RADIUS
:HFF001:          161.962           0.000        -305.113        -143.151 (KGAUSS)
:HFF002:          161.962           0.000        -305.113        -143.151 (KGAUSS)
:HFF003:          103.399           0.000        -464.654        -361.255 (KGAUSS)
     
       CHARGES OF NEW CHARGE DENSITY
:NTO   : INTERSTITIAL     UP =     2.652951 DN =     2.327177 TOT =     4.980128
:NPC   : PW Pseudocharge  UP =     6.394792 DN =     5.187399 TOT =    11.582190
:NTO001: CHARGE SPHERE  1 UP =    14.023601 DN =    11.070856 TOT =    25.094457
:NTO002: CHARGE SPHERE  2 UP =    14.023601 DN =    11.070856 TOT =    25.094457
:NTO003: CHARGE SPHERE  3 UP =    22.290348 DN =    21.121530 TOT =    43.411878

:NEC01: NUCLEAR AND ELECTRONIC CHARGE    142.00000   141.99280
     
       CHARGES OF OLD CHARGE DENSITY
:OTO   : INTERSTITIAL     UP =     2.697579 DN =     1.107042 TOT =     3.804621
:OPC   : PW Pseudocharge  UP =    12.529935 DN =     6.327856 TOT =    18.857791
:OTO001: CHARGE SPHERE  1 UP =    14.100211 DN =    11.156686 TOT =    25.256897
:OTO002: CHARGE SPHERE  2 UP =    14.100211 DN =    11.156686 TOT =    25.256897
:OTO003: CHARGE SPHERE  3 UP =    23.052245 DN =    20.790329 TOT =    43.842573

:NEC02: NUCLEAR AND ELECTRONIC CHARGE    142.00000   142.00356
     
       CONVERGENCE TEST
:DTO001: DIFFERENCE SPHERE  1 UP =  0.0644543 DN =  0.6179562 TOT =  0.6824105
:DTO002: DIFFERENCE SPHERE  2 UP =  0.0644542 DN =  0.6179561 TOT =  0.6824103
:DTO003: DIFFERENCE SPHERE  3 UP =  0.5568374 DN =  0.2409623 TOT =  0.7977996

:DIS  :  CHARGE DISTANCE       ( 0.6179562 for atom    1 spin 2)      1.4802100
 PW Mixed is           49
 
******************************************************
* MULTISECANT MIXING VER9 RELEASE 10.4.0              *
* Standard Mode with controls                        *
* Fixed density scale                                *
* Regularization       1.000E-04                     *
* Trust Upper Limit    5.000E+00                     *
* Max Number of Memory Steps    8                    *
******************************************************
 
:PWTMP   1.1765E+02  4.5917E+02  3.5807E+02
:PLANE:  PW TOTAL      4.4201 DISTAN   2.85E+00  6.45E+01 %
:CHARG:  CLM/ATOM    212.0506 DISTAN   4.30E-01  2.03E-01 %
INFO: Reducing dbase  2.50000E-02 1.48021E+00 2.05484E-02
 
Step History
        DMIX         DMIXT        Red     Pred      Trust     Lambda    MagRel    MagAbs     Beta
  1   3.5000E-02   3.5000E-02 -1.00E+00  1.00E+00 -1.00E+01  1.00E+00  3.50E-02  3.50E-02  1.00E+00
:INFO :  Note, Pratt in use
INFO: Reducing dbase  2.05484E-02 1.48021E+00 1.68895E-02
:TRUST:  Step 3.05E-02  Charge 7.50E-02 (e) CTO  2.50E-01 (e) PW  3.50E-01 (e)
:DIRM :  MEMORY  0/ 8 SCALE   1.000
Performing Pseudo Compensation
Final Pseudo Compensation Rescaling     9.99100E-01
Final Pseudo Compensation Rescaling     9.96404E-01
:MIX  :   PRATT  REGULARIZATION:  1.00E-04 GREED: 0.02036                  
     
       CHARGES OF MIXED CHARGE DENSITY
:CTO   : INTERSTITIAL     UP =     2.694275 DN =     1.130937 TOT =     3.825211
:CPC   : PW Pseudocharge  UP =     8.738802 DN =     4.895955 TOT =    13.634757
:CTO001: CHARGE SPHERE  1 UP =    14.098651 DN =    11.154938 TOT =    25.253590
:CTO002: CHARGE SPHERE  2 UP =    14.098651 DN =    11.154938 TOT =    25.253590
:CTO003: CHARGE SPHERE  3 UP =    23.036733 DN =    20.797072 TOT =    43.833805

       SPIN MAGNETIC MOMENTS OF MIXED CHARGE DENSITY
:MMINT:  MAGNETIC MOMENT IN INTERSTITIAL  =    1.56334
:MMI001: MAGNETIC MOMENT IN SPHERE   1    =    2.94371
:MMI002: MAGNETIC MOMENT IN SPHERE   2    =    2.94371
:MMI003: MAGNETIC MOMENT IN SPHERE   3    =    2.23966
:MMTOT:  SPIN MAGNETIC MOMENT IN CELL     =   11.93009

:NEC03: NUCLEAR AND ELECTRONIC CHARGE    142.00000   142.00000

PW CHANGE     H    K    L      Current       Change    Residue
:PUP001:      0    0    0  3.19296937E-02 -1.056E-02 -1.718E-02
:PUP003:      0    0   -2 -1.61660029E-02  1.271E-02  2.310E-02
:PUP004:      0   -2   -2  1.91385787E-02 -6.850E-02 -8.827E-02
:PUP006:     -2   -2   -2  7.20734031E-04  9.210E-03  1.067E-02
:PUP007:      0    0   -4 -7.38362315E-03 -1.733E-02 -1.700E-02
:PUP009:      0   -2   -4  1.03772074E-02  1.340E-02  8.578E-03
:PUP010:     -2   -2   -4 -2.54838648E-02 -3.153E-02 -1.870E-02
:PUP013:      0   -4   -4 -6.68012120E-03 -5.910E-03 -5.968E-04
:PUP015:     -2   -4   -4  3.33270527E-03  1.060E-03 -1.655E-03
:PUP016:      0    0   -6  8.34672647E-04  2.664E-04 -3.403E-04
:PUP017:      0   -2   -6 -4.59211478E-03 -2.509E-03  2.854E-03
:PUP019:     -2   -2   -6  7.55040172E-04 -7.563E-04 -1.478E-03
  
:PDN001:      0    0    0  1.68315844E-02 -3.913E-03  2.723E-04
:PDN003:      0    0   -2 -9.94426065E-03  8.887E-03  1.177E-02
:PDN004:      0   -2   -2  1.68173872E-02 -3.135E-02 -5.041E-02
:PDN006:     -2   -2   -2  6.69612806E-04  5.537E-03  6.964E-03
:PDN007:      0    0   -4 -4.48420004E-03 -8.903E-03 -1.010E-02
:PDN009:      0   -2   -4  8.89065605E-03  6.301E-03  4.127E-03
:PDN010:     -2   -2   -4 -1.86847696E-02 -1.712E-02 -5.320E-03
:PDN013:      0   -4   -4 -5.28157128E-03 -3.056E-03  1.720E-03
:PDN015:     -2   -4   -4  3.11090927E-03 -9.018E-04 -3.816E-03
:PDN016:      0    0   -6  7.86719862E-04 -2.165E-04 -5.124E-04
:PDN017:      0   -2   -6 -3.66208580E-03 -4.417E-04  2.426E-03
:PDN019:     -2   -2   -6  8.04158349E-04 -1.465E-03 -2.218E-03

:ENE  : *WARNING** TOTAL ENERGY IN Ry =       -24232.19558823

 Flat Integration
 New Mode for Coulomb Integral
 Consistent 3/8+Simpson combinations
 Extension of core to zero
 LDM version in phi
 Fifth-order quadrature in outwin


            ---------
:ITE002:  2. ITERATION
            ---------

:NATO :    3 INDEPENDENT AND    4 TOTAL ATOMS IN UNITCELL
       SUBSTANCE: FeRh                                                        

       LATTICE                      = F   
:POT  : POTENTIAL OPTION EX_PBE EC_PBE VX_PBE VC_PBE
:LAT  : LATTICE CONSTANTS= 11.27222 11.27222 11.27222    1.571    1.571    1.571
:VOL  : UNIT CELL VOLUME =     358.07036
       MODE OF CALCULATION IS       = RELA
       SPINPOLARIZED CALCULATION
:IFFT  : FFT-parameters:   90   90   90 Factor: 2.00


   CONVERGENCE PARAMETER FOR PSEUDOCHARGE: NCON=  9
   MAXIMAL VALUE OF RMT(JATOM)*ABSK(NKK) : RK  =29.05063


:VKCOUL :  VK-COUL convergence: 0.474E-07
       ATOMNUMBER=  1 Fe1        VCOUL-ZERO =  0.62926E+00
       ATOMNUMBER=  2 Fe2        VCOUL-ZERO =  0.62926E+00
       ATOMNUMBER=  3 Rh1        VCOUL-ZERO =  0.60026E+00
:FIT001: LUSE= 13 SIGMA OF V-XC FIT FOR ATOM  1  0.7073807E-02
:FIT001: LUSE= 13 SIGMA OF V-XC FIT FOR ATOM  1  0.1869101E-02
:FIT002: LUSE= 13 SIGMA OF V-XC FIT FOR ATOM  2  0.7073807E-02
:FIT002: LUSE= 13 SIGMA OF V-XC FIT FOR ATOM  2  0.1869101E-02
:FIT003: LUSE= 13 SIGMA OF V-XC FIT FOR ATOM  3  0.1434958E-02
:FIT003: LUSE= 13 SIGMA OF V-XC FIT FOR ATOM  3  0.3305962E-03
:DEN  : DENSITY INTEGRAL  =         -9883.62097308   (Ry)
       ELS_POTENTIAL_AT Z=0 and Z=0.5:  -0.21259  -0.21259
       ELS_POTENTIAL_AT Y=0 and Y=0.5:   0.00000   0.00000
:VZERO:v0,v0c,v0x  -0.88671  -0.21259  -0.67412 v5,v5c,v5x  -0.88671  -0.21259  -0.67412
:VZERY:v0,v0c,v0x  -0.86851   0.00000  -0.86851 v5,v5c,v5x  -0.86851   0.00000  -0.86851
:VZERX:v0,v0c,v0x  -0.86851   0.00000  -0.86851 v5,v5c,v5x  -0.86851   0.00000  -0.86851
:LMAX-WF:   10   Non-Spherical LMAX:   4

          ATOMIC SPHERE DEPENDENT PARAMETERS FOR ATOM  Fe1       
:e__0001: OVERALL ENERGY PARAMETER IS    0.5000
          OVERALL BASIS SET ON ATOM IS LAPW
:E1_0001: E( 1)=    0.5000
             APW+lo
:E1_0001: E( 1)=   -3.2054   E(BOTTOM)=   -3.238   E(TOP)=   -3.173  1  2   173
             LOCAL ORBITAL
:E2_0001: E( 2)=    0.5768   E(BOTTOM)=    0.334   E(TOP)=    0.820  0  1   122
             APW+lo
:E0_0001: E( 0)=    0.5000
             APW+lo

          ATOMIC SPHERE DEPENDENT PARAMETERS FOR ATOM  Fe2       
:e__0002: OVERALL ENERGY PARAMETER IS    0.5000
          OVERALL BASIS SET ON ATOM IS LAPW
:E1_0002: E( 1)=    0.5000
             APW+lo
:E1_0002: E( 1)=   -3.2054   E(BOTTOM)=   -3.238   E(TOP)=   -3.173  1  2   173
             LOCAL ORBITAL
:E2_0002: E( 2)=    0.5768   E(BOTTOM)=    0.334   E(TOP)=    0.820  0  1   122
             APW+lo
:E0_0002: E( 0)=    0.5000
             APW+lo

          ATOMIC SPHERE DEPENDENT PARAMETERS FOR ATOM  Rh1       
:e__0003: OVERALL ENERGY PARAMETER IS    0.5000
          OVERALL BASIS SET ON ATOM IS LAPW
:E1_0003: E( 1)=    0.5000
             APW+lo
:E1_0003: E( 1)=   -2.6650   E(BOTTOM)=   -2.765   E(TOP)=   -2.565  2  3   170
             LOCAL ORBITAL
:E2_0003: E( 2)=    0.5000   E(BOTTOM)=    0.128   E(TOP)= -200.000  1 -1    96
             APW+lo
:E0_0003: E( 0)=    0.5000
             APW+lo

       K=   0.00000   0.00000   0.00000            1
:RKM  : MATRIX SIZE   185LOs:  48  RKM= 6.64  WEIGHT= 1.00  PGR:    
       EIGENVALUES ARE:
:EIG00001:      -3.1993938   -3.1993938   -3.1993938   -3.1975580   -3.1975580
:EIG00006:      -3.1975580   -2.6478919   -2.6478919   -2.6478919   -2.6399493
:EIG00011:      -2.6399493   -2.6399493    0.0374891    0.3053244    0.3053244
:EIG00016:       0.3780798    0.3780798    0.3780798    0.5021890    0.5021890
:EIG00021:       0.5021890    0.5373983    0.5373983    0.5373983    0.6770221
:EIG00026:       0.6770221    0.6894264    0.6894264    0.7395568    0.7395568
:EIG00031:       0.7727540    0.7727540    0.7727540    1.2248656    1.2886352
:EIG00036:       1.2886352    1.2886352    1.2973487    1.2973487    1.2973487
:EIG00041:       1.4137470    1.4137470    1.4137470    1.4658134    1.9624853
:EIG00046:       1.9624853    2.0429138    2.1181777    2.1181777    2.1181777
 
       ********************************************************

:KPT   :      NUMBER OF K-POINTS:    47
:LMAX-WF:   10   Non-Spherical LMAX:   4

          ATOMIC SPHERE DEPENDENT PARAMETERS FOR ATOM  Fe1       
:e__0001: OVERALL ENERGY PARAMETER IS    0.5000
          OVERALL BASIS SET ON ATOM IS LAPW
:E1_0001: E( 1)=    0.5000
             APW+lo
:E1_0001: E( 1)=   -3.0154   E(BOTTOM)=   -3.049   E(TOP)=   -2.982  1  2   195
             LOCAL ORBITAL
:E2_0001: E( 2)=    0.5054   E(BOTTOM)=    0.505   E(TOP)= -200.000  0 -1    69
             APW+lo
:E0_0001: E( 0)=    0.5000
             APW+lo

          ATOMIC SPHERE DEPENDENT PARAMETERS FOR ATOM  Fe2       
:e__0002: OVERALL ENERGY PARAMETER IS    0.5000
          OVERALL BASIS SET ON ATOM IS LAPW
:E1_0002: E( 1)=    0.5000
             APW+lo
:E1_0002: E( 1)=   -3.0154   E(BOTTOM)=   -3.049   E(TOP)=   -2.982  1  2   195
             LOCAL ORBITAL
:E2_0002: E( 2)=    0.5054   E(BOTTOM)=    0.505   E(TOP)= -200.000  0 -1    69
             APW+lo
:E0_0002: E( 0)=    0.5000
             APW+lo

          ATOMIC SPHERE DEPENDENT PARAMETERS FOR ATOM  Rh1       
:e__0003: OVERALL ENERGY PARAMETER IS    0.5000
          OVERALL BASIS SET ON ATOM IS LAPW
:E1_0003: E( 1)=    0.5000
             APW+lo
:E1_0003: E( 1)=   -2.5644   E(BOTTOM)=   -2.663   E(TOP)=   -2.466  2  3   179
             LOCAL ORBITAL
:E2_0003: E( 2)=    0.5000   E(BOTTOM)=    0.243   E(TOP)= -200.000  1 -1    90
             APW+lo
:E0_0003: E( 0)=    0.5000
             APW+lo

       K=   0.00000   0.00000   0.00000            1
:RKM  : MATRIX SIZE   185LOs:  48  RKM= 6.64  WEIGHT= 1.00  PGR:    
       EIGENVALUES ARE:
:EIG00001:      -3.0092050   -3.0092050   -3.0092050   -3.0073161   -3.0073161
:EIG00006:      -3.0073161   -2.5474132   -2.5474132   -2.5474132   -2.5394868
:EIG00011:      -2.5394868   -2.5394868    0.1925280    0.4488936    0.4488936
:EIG00016:       0.5115590    0.5115590    0.5115590    0.6764132    0.6764132
:EIG00021:       0.6764132    0.6821457    0.6821457    0.6821457    0.8396212
:EIG00026:       0.8396212    0.8522196    0.8522196    0.8767955    0.8767955
:EIG00031:       0.9293000    0.9293000    0.9293000    1.3798514    1.4526719
:EIG00036:       1.4526719    1.4526719    1.4705142    1.4705142    1.4705142
:EIG00041:       1.5573174    1.5573174    1.5573174    1.5993528    2.1762486
:EIG00046:       2.1762486    2.1840176
 
       ********************************************************

:KPT   :      NUMBER OF K-POINTS:    47
:GAP (global)   :    0.0    Ry =     0.0   eV (metal)
:GAP (this spin):    0.0    Ry =     0.0   eV (metal)
         Bandranges (emin - emax) and occupancy:
:BAN00025:  25    0.595964    0.677888  1.00000000
:BAN00026:  26    0.609103    0.683357  1.00000000
:BAN00027:  27    0.632350    0.689426  1.00000000
:BAN00028:  28    0.644781    0.692031  1.00000000
:BAN00029:  29    0.667835    0.739557  1.00000000
:BAN00030:  30    0.680227    0.739557  1.00000000
:BAN00031:  31    0.684891    0.772754  1.00000000
:BAN00032:  32    0.706018    0.772754  1.00000000
:BAN00033:  33    0.717439    0.788988  1.00279294
:BAN00034:  34    0.745518    1.224866  0.29537389
:BAN00035:  35    0.791444    1.288635  0.00038136
:BAN00036:  36    0.810309    1.288635  0.00000000
:BAN00037:  37    1.234861    1.422107  0.00000000
:BAN00038:  38    1.242648    1.538264  0.00000000
:BAN00039:  39    1.288103    1.766447  0.00000000
:BAN00040:  40    1.297349    1.766447  0.00000000
        Energy to separate low and high energystates:   -0.01251


:NOE  : NUMBER OF ELECTRONS          =   58.000

:FER  : F E R M I - ENERGY(TETRAH.M.)=   0.7963685333
:GMA  : POTENTIAL AND CHARGE CUT-OFF  12.00 Ry**.5

:POS001: ATOM    1 X,Y,Z = 0.00000 0.00000 0.00000  MULT= 1  ZZ= 26.000  Fe1       

       LMMAX  5
       LM=   0 0  4 0  4 4  6 0  6 4

:CHA001: TOTAL VALENCE CHARGE INSIDE SPHERE   1 =   8.0309    (RMT=  2.4300 )
:PCS001: PARTIAL CHARGES SPHERE =  1 S,P,D,F,      D-EG,D-T2G 
:QTL001: 0.2560 3.2949 4.4368 0.0316 0.0000 0.0000 0.0000 1.8440 2.5929 0.0000 0.0000 0.0000
        Q-s-low E-s-low   Q-p-low E-p-low   Q-d-low E-d-low   Q-f-low E-f-low
:EPL001:  0.0006 -2.6533    2.9951 -3.1982    0.0014 -2.6489    0.0006 -2.6495
        Q-s-hi  E-s-hi    Q-p-hi  E-p-hi    Q-d-hi  E-d-hi    Q-f-hi  E-f-hi 
:EPH001:  0.2554  0.3091    0.2998  0.4664    4.4355  0.5994    0.0310  0.5557

:POS002: ATOM    2 X,Y,Z = 0.50000 0.00000 0.00000  MULT= 1  ZZ= 26.000  Fe2       

       LMMAX  5
       LM=   0 0  4 0  4 4  6 0  6 4

:CHA002: TOTAL VALENCE CHARGE INSIDE SPHERE   2 =   8.0309    (RMT=  2.4300 )
:PCS002: PARTIAL CHARGES SPHERE =  2 S,P,D,F,      D-EG,D-T2G 
:QTL002: 0.2560 3.2949 4.4368 0.0316 0.0000 0.0000 0.0000 1.8440 2.5929 0.0000 0.0000 0.0000
        Q-s-low E-s-low   Q-p-low E-p-low   Q-d-low E-d-low   Q-f-low E-f-low
:EPL002:  0.0006 -2.6533    2.9951 -3.1982    0.0014 -2.6489    0.0006 -2.6495
        Q-s-hi  E-s-hi    Q-p-hi  E-p-hi    Q-d-hi  E-d-hi    Q-f-hi  E-f-hi 
:EPH002:  0.2554  0.3091    0.2998  0.4664    4.4355  0.5994    0.0310  0.5557

:POS003: ATOM    3 X,Y,Z = 0.25000 0.25000 0.25000  MULT= 2  ZZ= 45.000  Rh1       

       LMMAX  6
       LM=   0 0  4 0  4 4  6 0  6 4 -3 2

:CHA003: TOTAL VALENCE CHARGE INSIDE SPHERE   3 =   7.2996    (RMT=  2.4300 )
:PCS003: PARTIAL CHARGES SPHERE =  3 S,P,D,F,      D-EG,D-T2G 
:QTL003: 0.1911 3.1910 3.8821 0.0274 0.0000 0.0000 0.0000 1.5612 2.3210 0.0000 0.0000 0.0000
        Q-s-low E-s-low   Q-p-low E-p-low   Q-d-low E-d-low   Q-f-low E-f-low
:EPL003:  0.0002 -3.1091    2.9784 -2.6445    0.0004 -3.1226    0.0002 -3.1207
        Q-s-hi  E-s-hi    Q-p-hi  E-p-hi    Q-d-hi  E-d-hi    Q-f-hi  E-f-hi 
:EPH003:  0.1909  0.3105    0.2126  0.4824    3.8817  0.5472    0.0272  0.5724

:CHA  : TOTAL VALENCE CHARGE INSIDE UNIT CELL =      33.298548

:SUM  : SUM OF EIGENVALUES =         -23.520892446

:GAP (global)   :    0.0    Ry =     0.0   eV (metal)
:GAP (this spin):    0.0    Ry =     0.0   eV (metal)
         Bandranges (emin - emax) and occupancy:
:BAN00017:  17    0.511559    0.606684  1.00000000
:BAN00018:  18    0.511559    0.606684  1.00000000
:BAN00019:  19    0.554318    0.676413  1.00000000
:BAN00020:  20    0.601547    0.680286  1.00000000
:BAN00021:  21    0.606047    0.680286  1.00000000
:BAN00022:  22    0.606047    0.732333  1.00000000
:BAN00023:  23    0.608340    0.768880  1.00000000
:BAN00024:  24    0.608340    0.787653  1.00000000
:BAN00025:  25    0.751227    0.840110  0.52030351
:BAN00026:  26    0.781379    0.844906  0.17913770
:BAN00027:  27    0.795182    0.852220  0.00202033
:BAN00028:  28    0.808323    0.854447  0.00000000
:BAN00029:  29    0.834332    0.882306  0.00000000
:BAN00030:  30    0.842725    0.884246  0.00000000
:BAN00031:  31    0.843385    0.929300  0.00000000
:BAN00032:  32    0.868304    0.929300  0.00000000
        Energy to separate low and high energystates:    0.14253


:NOE  : NUMBER OF ELECTRONS          =   58.000

:FER  : F E R M I - ENERGY(TETRAH.M.)=   0.7963685333
:GMA  : POTENTIAL AND CHARGE CUT-OFF  12.00 Ry**.5

:POS001: ATOM    1 X,Y,Z = 0.00000 0.00000 0.00000  MULT= 1  ZZ= 26.000  Fe1       

       LMMAX  5
       LM=   0 0  4 0  4 4  6 0  6 4

:CHA001: TOTAL VALENCE CHARGE INSIDE SPHERE   1 =   5.0670    (RMT=  2.4300 )
:PCS001: PARTIAL CHARGES SPHERE =  1 S,P,D,F,      D-EG,D-T2G 
:QTL001: 0.2331 3.2504 1.5534 0.0226 0.0000 0.0000 0.0000 0.4916 1.0618 0.0000 0.0000 0.0000
        Q-s-low E-s-low   Q-p-low E-p-low   Q-d-low E-d-low   Q-f-low E-f-low
:EPL001:  0.0005 -2.5524    2.9948 -3.0080    0.0013 -2.5482    0.0006 -2.5484
        Q-s-hi  E-s-hi    Q-p-hi  E-p-hi    Q-d-hi  E-d-hi    Q-f-hi  E-f-hi 
:EPH001:  0.2326  0.4261    0.2556  0.5775    1.5522  0.6373    0.0221  0.6287

:POS002: ATOM    2 X,Y,Z = 0.50000 0.00000 0.00000  MULT= 1  ZZ= 26.000  Fe2       

       LMMAX  5
       LM=   0 0  4 0  4 4  6 0  6 4

:CHA002: TOTAL VALENCE CHARGE INSIDE SPHERE   2 =   5.0670    (RMT=  2.4300 )
:PCS002: PARTIAL CHARGES SPHERE =  2 S,P,D,F,      D-EG,D-T2G 
:QTL002: 0.2331 3.2504 1.5534 0.0226 0.0000 0.0000 0.0000 0.4916 1.0618 0.0000 0.0000 0.0000
        Q-s-low E-s-low   Q-p-low E-p-low   Q-d-low E-d-low   Q-f-low E-f-low
:EPL002:  0.0005 -2.5524    2.9948 -3.0080    0.0013 -2.5482    0.0006 -2.5484
        Q-s-hi  E-s-hi    Q-p-hi  E-p-hi    Q-d-hi  E-d-hi    Q-f-hi  E-f-hi 
:EPH002:  0.2326  0.4261    0.2556  0.5775    1.5522  0.6373    0.0221  0.6287

:POS003: ATOM    3 X,Y,Z = 0.25000 0.25000 0.25000  MULT= 2  ZZ= 45.000  Rh1       

       LMMAX  6
       LM=   0 0  4 0  4 4  6 0  6 4 -3 2

:CHA003: TOTAL VALENCE CHARGE INSIDE SPHERE   3 =   6.1393    (RMT=  2.4300 )
:PCS003: PARTIAL CHARGES SPHERE =  3 S,P,D,F,      D-EG,D-T2G 
:QTL003: 0.1852 3.1618 2.7742 0.0148 0.0000 0.0000 0.0000 0.9077 1.8665 0.0000 0.0000 0.0000
        Q-s-low E-s-low   Q-p-low E-p-low   Q-d-low E-d-low   Q-f-low E-f-low
:EPL003:  0.0002 -2.9429    2.9793 -2.5440    0.0004 -2.9508    0.0002 -2.9472
        Q-s-hi  E-s-hi    Q-p-hi  E-p-hi    Q-d-hi  E-d-hi    Q-f-hi  E-f-hi 
:EPH003:  0.1850  0.4458    0.1825  0.6028    2.7738  0.5900    0.0146  0.6480

:CHA  : TOTAL VALENCE CHARGE INSIDE UNIT CELL =      24.701462

:SUM  : SUM OF EIGENVALUES =         -25.898810821



   QTL-B VALUE .EQ.    3.41183   in Band of energy    0.82882   ATOM=    2   L=  2
    Most likely no ghostbands, but adjust Energy-parameters for this ATOM and L


:WARN : QTL-B value eq.   3.41 in Band of energy   0.82882  ATOM=    2  L=  2
:WARN : You should change the E-parameter for this atom and L-value in case.in1 (or try the -in1new switch)

        1.ATOM      Fe1                   5 CORE STATES
:1S 001: 1S                -512.965616247 Ry
:2S 001: 2S                 -58.913993791 Ry
:2PP001: 2P*                -50.607187950 Ry
:2P 001: 2P                 -49.690561723 Ry
:3S 001: 3S                  -5.686682144 Ry

        2.ATOM      Fe2                   5 CORE STATES
:1S 002: 1S                -512.965616240 Ry
:2S 002: 2S                 -58.913993785 Ry
:2PP002: 2P*                -50.607187943 Ry
:2P 002: 2P                 -49.690561717 Ry
:3S 002: 3S                  -5.686682140 Ry

        3.ATOM      Rh1                  10 CORE STATES
:1S 003: 1S               -1691.265696803 Ry
:2S 003: 2S                -244.167217155 Ry
:2PP003: 2P*               -225.974239252 Ry
:2P 003: 2P                -215.345518059 Ry
:3S 003: 3S                 -42.702552089 Ry
:3PP003: 3P*                -35.585274365 Ry
:3P 003: 3P                 -33.756675498 Ry
:3DD003: 3D*                -21.161595506 Ry
:3D 003: 3D                 -20.801017160 Ry
:4S 003: 4S                  -4.989809298 Ry

        1.ATOM      Fe1                   5 CORE STATES
:1S 001: 1S                -512.964826448 Ry
:2S 001: 2S                 -58.831711482 Ry
:2PP001: 2P*                -50.545845940 Ry
:2P 001: 2P                 -49.627435666 Ry
:3S 001: 3S                  -5.493730180 Ry

        2.ATOM      Fe2                   5 CORE STATES
:1S 002: 1S                -512.964826441 Ry
:2S 002: 2S                 -58.831711476 Ry
:2PP002: 2P*                -50.545845933 Ry
:2P 002: 2P                 -49.627435659 Ry
:3S 002: 3S                  -5.493730176 Ry

        3.ATOM      Rh1                  10 CORE STATES
:1S 003: 1S               -1691.264577077 Ry
:2S 003: 2S                -244.146529284 Ry
:2PP003: 2P*               -225.959184382 Ry
:2P 003: 2P                -215.329415091 Ry
:3S 003: 3S                 -42.690886056 Ry
:3PP003: 3P*                -35.571811319 Ry
:3P 003: 3P                 -33.743635219 Ry
:3DD003: 3D*                -21.141851475 Ry
:3D 003: 3D                 -20.781332482 Ry
:4S 003: 4S                  -4.896043541 Ry
:CINT001 Core Integral Atom   1 Up    5.999609 Dn   5.999594 Total  11.999203
:CINT002 Core Integral Atom   2 Up    5.999609 Dn   5.999594 Total  11.999203
:CINT003 Core Integral Atom   3 Up   14.998603 Dn  14.998646 Total  29.997249

       DENSITY AT NUCLEUS
        JATOM        VALENCE       SEMI-CORE          CORE           TOTAL
:RTO001:   1        7.264953        0.000000    15301.699625    15308.964578
:RTO002:   2        7.264953        0.000000    15301.699625    15308.964578
:RTO003:   3       24.621509        0.000000   155310.635988   155335.257497

       HYPERFINE FIELDS FOR THOMSON RADIUS
:HFF001:          161.024           0.000        -306.123        -145.099 (KGAUSS)
:HFF002:          161.024           0.000        -306.123        -145.099 (KGAUSS)
:HFF003:           92.531           0.000        -461.245        -368.713 (KGAUSS)
     
       CHARGES OF NEW CHARGE DENSITY
:NTO   : INTERSTITIAL     UP =     2.637631 DN =     2.288709 TOT =     4.926341
:NPC   : PW Pseudocharge  UP =     6.363070 DN =     5.159462 TOT =    11.522533
:NTO001: CHARGE SPHERE  1 UP =    14.030495 DN =    11.066623 TOT =    25.097118
:NTO002: CHARGE SPHERE  2 UP =    14.030495 DN =    11.066623 TOT =    25.097118
:NTO003: CHARGE SPHERE  3 UP =    22.298156 DN =    21.137980 TOT =    43.436136

:NEC01: NUCLEAR AND ELECTRONIC CHARGE    142.00000   141.99285
     
       CHARGES OF OLD CHARGE DENSITY
:OTO   : INTERSTITIAL     UP =     2.694275 DN =     1.130937 TOT =     3.825211
:OPC   : PW Pseudocharge  UP =     8.738802 DN =     4.895955 TOT =    13.634757
:OTO001: CHARGE SPHERE  1 UP =    14.098651 DN =    11.154938 TOT =    25.253590
:OTO002: CHARGE SPHERE  2 UP =    14.098651 DN =    11.154938 TOT =    25.253590
:OTO003: CHARGE SPHERE  3 UP =    23.036733 DN =    20.797072 TOT =    43.833805

:NEC02: NUCLEAR AND ELECTRONIC CHARGE    142.00000   142.00000
     
       CONVERGENCE TEST
:DTO001: DIFFERENCE SPHERE  1 UP =  0.0519701 DN =  0.5909928 TOT =  0.6429630
:DTO002: DIFFERENCE SPHERE  2 UP =  0.0519701 DN =  0.5909928 TOT =  0.6429629
:DTO003: DIFFERENCE SPHERE  3 UP =  0.5171512 DN =  0.2160056 TOT =  0.7331568

:DIS  :  CHARGE DISTANCE       ( 0.5909928 for atom    1 spin 2)      1.3761198
 PW Mixed is           49
 
******************************************************
* MULTISECANT MIXING VER9 RELEASE 10.4.0              *
* Slow Mode, cautious                                *
* Fixed density scale                                *
* Regularization       1.000E-04                     *
* Step Trust Radius    0.75000                       *
* Trust Upper Limit    2.000E+00                     *
* Max Number of Memory Steps   12                    *
******************************************************
 
:PWTMP   1.1765E+02  4.5917E+02  3.5807E+02
:PLANE:  PW TOTAL      2.9668 DISTAN   9.83E-01  3.31E+01 %
:CHARG:  CLM/ATOM    212.0495 DISTAN   4.06E-01  1.91E-01 %
INFO: Reducing dbase  1.00000E-02 1.37612E+00 8.52456E-03
 
Step History
        DMIX         DMIXT        Red     Pred      Trust     Lambda    MagRel    MagAbs     Beta
  1   3.5000E-02   3.5000E-02 -1.00E+00  1.00E+00 -1.00E+01  1.00E+00  3.50E-02  3.50E-02  1.00E+00
  2   2.0359E-02   2.0359E-02 -1.00E+00  1.00E+00 -1.00E+01  1.00E+00  2.04E-02  3.91E-02  1.00E+00
:JACOBIANS    4.954E-01   4.503E-04
  
:TRUST:  Step 2.79E-02  Charge 7.50E-02 (e) CTO  2.50E-01 (e) PW  3.50E-01 (e)
:DIRM :  MEMORY  1/12 SCALE   1.000
:MIX  :   PRATT  REGULARIZATION:  1.00E-04 GREED: 0.02792  Expand 1.37  0.0279                
     
       CHARGES OF MIXED CHARGE DENSITY
:CTO   : INTERSTITIAL     UP =     2.694007 DN =     1.139488 TOT =     3.833496
:CPC   : PW Pseudocharge  UP =     7.442389 DN =     4.406815 TOT =    11.849204
:CTO001: CHARGE SPHERE  1 UP =    14.098116 DN =    11.154339 TOT =    25.252455
:CTO002: CHARGE SPHERE  2 UP =    14.098116 DN =    11.154339 TOT =    25.252455
:CTO003: CHARGE SPHERE  3 UP =    23.031412 DN =    20.799385 TOT =    43.830797

       SPIN MAGNETIC MOMENTS OF MIXED CHARGE DENSITY
:MMINT:  MAGNETIC MOMENT IN INTERSTITIAL  =    1.55452
:MMI001: MAGNETIC MOMENT IN SPHERE   1    =    2.94378
:MMI002: MAGNETIC MOMENT IN SPHERE   2    =    2.94378
:MMI003: MAGNETIC MOMENT IN SPHERE   3    =    2.23203
:MMTOT:  SPIN MAGNETIC MOMENT IN CELL     =   11.90613

:NEC03: NUCLEAR AND ELECTRONIC CHARGE    142.00000   142.00000

PW CHANGE     H    K    L      Current       Change    Residue
:PUP001:      0    0    0  2.83083928E-02 -3.621E-03 -6.757E-03
:PUP003:      0    0   -2 -1.18076964E-02  4.358E-03  1.038E-02
:PUP004:      0   -2   -2 -4.35965186E-03 -2.350E-02 -1.975E-02
:PUP006:     -2   -2   -2  3.87995936E-03  3.159E-03  1.415E-03
:PUP007:      0    0   -4 -1.33271438E-02 -5.944E-03  3.381E-04
:PUP009:      0   -2   -4  1.49750046E-02  4.598E-03 -4.845E-03
:PUP010:     -2   -2   -4 -3.62989739E-02 -1.082E-02  1.285E-02
:PUP013:      0   -4   -4 -8.70748576E-03 -2.027E-03  5.313E-03
:PUP015:     -2   -4   -4  3.69621327E-03  3.635E-04 -2.715E-03
:PUP016:      0    0   -6  9.26062918E-04  9.139E-05 -6.064E-04
:PUP017:      0   -2   -6 -5.45259078E-03 -8.605E-04  5.350E-03
:PUP019:     -2   -2   -6  4.95599955E-04 -2.594E-04 -7.219E-04
  
:PDN001:      0    0    0  1.54894242E-02 -1.342E-03  3.999E-03
:PDN003:      0    0   -2 -6.89592402E-03  3.048E-03  2.858E-03
:PDN004:      0   -2   -2  6.06363422E-03 -1.075E-02 -1.846E-02
:PDN006:     -2   -2   -2  2.56881582E-03  1.899E-03  1.526E-03
:PDN007:      0    0   -4 -7.53819758E-03 -3.054E-03 -1.100E-03
:PDN009:      0   -2   -4  1.10519423E-02  2.161E-03 -2.086E-03
:PDN010:     -2   -2   -4 -2.45580389E-02 -5.873E-03  1.174E-02
:PDN013:      0   -4   -4 -6.32989013E-03 -1.048E-03  4.747E-03
:PDN015:     -2   -4   -4  2.80157872E-03 -3.093E-04 -2.893E-03
:PDN016:      0    0   -6  7.12471854E-04 -7.425E-05 -3.014E-04
:PDN017:      0   -2   -6 -3.81358848E-03 -1.515E-04  2.861E-03
:PDN019:     -2   -2   -6  3.01760378E-04 -5.024E-04 -7.589E-04

:ENE  : *WARNING** TOTAL ENERGY IN Ry =       -24232.16835668

 Flat Integration
 New Mode for Coulomb Integral
 Consistent 3/8+Simpson combinations
 Extension of core to zero
 LDM version in phi
 Fifth-order quadrature in outwin


            ---------
:ITE003:  3. ITERATION
            ---------

:NATO :    3 INDEPENDENT AND    4 TOTAL ATOMS IN UNITCELL
       SUBSTANCE: FeRh                                                        

       LATTICE                      = F   
:POT  : POTENTIAL OPTION EX_PBE EC_PBE VX_PBE VC_PBE
:LAT  : LATTICE CONSTANTS= 11.27222 11.27222 11.27222    1.571    1.571    1.571
:VOL  : UNIT CELL VOLUME =     358.07036
       MODE OF CALCULATION IS       = RELA
       SPINPOLARIZED CALCULATION
:IFFT  : FFT-parameters:   90   90   90 Factor: 2.00


   CONVERGENCE PARAMETER FOR PSEUDOCHARGE: NCON=  9
   MAXIMAL VALUE OF RMT(JATOM)*ABSK(NKK) : RK  =29.05063


:VKCOUL :  VK-COUL convergence: 0.529E-07
       ATOMNUMBER=  1 Fe1        VCOUL-ZERO =  0.61935E+00
       ATOMNUMBER=  2 Fe2        VCOUL-ZERO =  0.61935E+00
       ATOMNUMBER=  3 Rh1        VCOUL-ZERO =  0.59023E+00
:FIT001: LUSE= 13 SIGMA OF V-XC FIT FOR ATOM  1  0.6980661E-02
:FIT001: LUSE= 13 SIGMA OF V-XC FIT FOR ATOM  1  0.1659790E-02
:FIT002: LUSE= 13 SIGMA OF V-XC FIT FOR ATOM  2  0.6980661E-02
:FIT002: LUSE= 13 SIGMA OF V-XC FIT FOR ATOM  2  0.1659790E-02
:FIT003: LUSE= 13 SIGMA OF V-XC FIT FOR ATOM  3  0.1401347E-02
:FIT003: LUSE= 13 SIGMA OF V-XC FIT FOR ATOM  3  0.3490827E-03
:DEN  : DENSITY INTEGRAL  =         -9881.57981678   (Ry)
       ELS_POTENTIAL_AT Z=0 and Z=0.5:  -0.20402  -0.20402
       ELS_POTENTIAL_AT Y=0 and Y=0.5:   0.00000   0.00000
:VZERO:v0,v0c,v0x  -0.77483  -0.20402  -0.57081 v5,v5c,v5x  -0.77483  -0.20402  -0.57081
:VZERY:v0,v0c,v0x  -0.82955   0.00000  -0.82955 v5,v5c,v5x  -0.82955   0.00000  -0.82955
:VZERX:v0,v0c,v0x  -0.82955   0.00000  -0.82955 v5,v5c,v5x  -0.82955   0.00000  -0.82955
:LMAX-WF:   10   Non-Spherical LMAX:   4

          ATOMIC SPHERE DEPENDENT PARAMETERS FOR ATOM  Fe1       
:e__0001: OVERALL ENERGY PARAMETER IS    0.5642
          OVERALL BASIS SET ON ATOM IS LAPW
:E1_0001: E( 1)=    0.5642
             APW+lo
:E1_0001: E( 1)=   -3.2191   E(BOTTOM)=   -3.252   E(TOP)=   -3.186  1  2   170
             LOCAL ORBITAL
:E2_0001: E( 2)=    0.5639   E(BOTTOM)=    0.322   E(TOP)=    0.806  0  1   127
             APW+lo
:E0_0001: E( 0)=    0.5642
             APW+lo

          ATOMIC SPHERE DEPENDENT PARAMETERS FOR ATOM  Fe2       
:e__0002: OVERALL ENERGY PARAMETER IS    0.5642
          OVERALL BASIS SET ON ATOM IS LAPW
:E1_0002: E( 1)=    0.5642
             APW+lo
:E1_0002: E( 1)=   -3.2191   E(BOTTOM)=   -3.252   E(TOP)=   -3.186  1  2   170
             LOCAL ORBITAL
:E2_0002: E( 2)=    0.5639   E(BOTTOM)=    0.322   E(TOP)=    0.806  0  1   127
             APW+lo
:E0_0002: E( 0)=    0.5642
             APW+lo

          ATOMIC SPHERE DEPENDENT PARAMETERS FOR ATOM  Rh1       
:e__0003: OVERALL ENERGY PARAMETER IS    0.5642
          OVERALL BASIS SET ON ATOM IS LAPW
:E1_0003: E( 1)=    0.5642
             APW+lo
:E1_0003: E( 1)=   -2.6781   E(BOTTOM)=   -2.778   E(TOP)=   -2.578  2  3   166
             LOCAL ORBITAL
:E2_0003: E( 2)=    0.5727   E(BOTTOM)=    0.116   E(TOP)=    1.029  1  2   143
             APW+lo
:E0_0003: E( 0)=    0.5642
             APW+lo

       K=   0.00000   0.00000   0.00000            1
:RKM  : MATRIX SIZE   185LOs:  48  RKM= 6.64  WEIGHT= 1.00  PGR:    
       EIGENVALUES ARE:
:EIG00001:      -3.2130760   -3.2130760   -3.2130760   -3.2112682   -3.2112682
:EIG00006:      -3.2112682   -2.6610734   -2.6610734   -2.6610734   -2.6531464
:EIG00011:      -2.6531464   -2.6531464    0.0262697    0.2934211    0.2934211
:EIG00016:       0.3662285    0.3662285    0.3662285    0.4897092    0.4897092
:EIG00021:       0.4897092    0.5248124    0.5248124    0.5248124    0.6640943
:EIG00026:       0.6640943    0.6761463    0.6761463    0.7269352    0.7269352
:EIG00031:       0.7597646    0.7597646    0.7597646    1.2133354    1.2766477
:EIG00036:       1.2766477    1.2766477    1.2858440    1.2858440    1.2858440
:EIG00041:       1.3995573    1.3995573    1.3995573    1.4542500    1.9458378
:EIG00046:       1.9458378    2.0309111    2.1064237    2.1064237    2.1064237
 
       ********************************************************

:KPT   :      NUMBER OF K-POINTS:    47
:LMAX-WF:   10   Non-Spherical LMAX:   4

          ATOMIC SPHERE DEPENDENT PARAMETERS FOR ATOM  Fe1       
:e__0001: OVERALL ENERGY PARAMETER IS    0.5642
          OVERALL BASIS SET ON ATOM IS LAPW
:E1_0001: E( 1)=    0.5642
             APW+lo
:E1_0001: E( 1)=   -3.0289   E(BOTTOM)=   -3.063   E(TOP)=   -2.995  1  2   199
             LOCAL ORBITAL
:E2_0001: E( 2)=    0.7451   E(BOTTOM)=    0.493   E(TOP)=    0.997  0  1   119
             APW+lo
:E0_0001: E( 0)=    0.5642
             APW+lo

          ATOMIC SPHERE DEPENDENT PARAMETERS FOR ATOM  Fe2       
:e__0002: OVERALL ENERGY PARAMETER IS    0.5642
          OVERALL BASIS SET ON ATOM IS LAPW
:E1_0002: E( 1)=    0.5642
             APW+lo
:E1_0002: E( 1)=   -3.0289   E(BOTTOM)=   -3.063   E(TOP)=   -2.995  1  2   196
             LOCAL ORBITAL
:E2_0002: E( 2)=    0.7451   E(BOTTOM)=    0.493   E(TOP)=    0.997  0  1   119
             APW+lo
:E0_0002: E( 0)=    0.5642
             APW+lo

          ATOMIC SPHERE DEPENDENT PARAMETERS FOR ATOM  Rh1       
:e__0003: OVERALL ENERGY PARAMETER IS    0.5642
          OVERALL BASIS SET ON ATOM IS LAPW
:E1_0003: E( 1)=    0.5642
             APW+lo
:E1_0003: E( 1)=   -2.5779   E(BOTTOM)=   -2.676   E(TOP)=   -2.479  2  3   175
             LOCAL ORBITAL
:E2_0003: E( 2)=    0.5642   E(BOTTOM)=    0.231   E(TOP)= -200.000  1 -1    89
             APW+lo
:E0_0003: E( 0)=    0.5642
             APW+lo

       K=   0.00000   0.00000   0.00000            1
:RKM  : MATRIX SIZE   185LOs:  48  RKM= 6.64  WEIGHT= 1.00  PGR:    
       EIGENVALUES ARE:
:EIG00001:      -3.0225961   -3.0225961   -3.0225961   -3.0207358   -3.0207358
:EIG00006:      -3.0207358   -2.5604679   -2.5604679   -2.5604679   -2.5529139
:EIG00011:      -2.5529139   -2.5529139    0.1835551    0.4380389    0.4380389
:EIG00016:       0.5006702    0.5006702    0.5006702    0.6649103    0.6649103
:EIG00021:       0.6649103    0.6698749    0.6698749    0.6698749    0.8263132
:EIG00026:       0.8263132    0.8393617    0.8393617    0.8624758    0.8624758
:EIG00031:       0.9145855    0.9145855    0.9145855    1.3699014    1.4433825
:EIG00036:       1.4433825    1.4433825    1.4452822    1.4452822    1.4452822
:EIG00041:       1.5443253    1.5443253    1.5443253    1.5888745    2.1190624
:EIG00046:       2.1190624    2.1724934
 
       ********************************************************

:KPT   :      NUMBER OF K-POINTS:    47
:GAP (global)   :    0.0    Ry =     0.0   eV (metal)
:GAP (this spin):    0.0    Ry =     0.0   eV (metal)
         Bandranges (emin - emax) and occupancy:
:BAN00025:  25    0.583875    0.664935  1.00000000
:BAN00026:  26    0.596231    0.670172  1.00000000
:BAN00027:  27    0.619595    0.676146  1.00000000
:BAN00028:  28    0.631964    0.679062  1.00000000
:BAN00029:  29    0.655056    0.726935  1.00000000
:BAN00030:  30    0.667442    0.726935  1.00000000
:BAN00031:  31    0.671624    0.759765  1.00000000
:BAN00032:  32    0.693159    0.759765  1.00000000
:BAN00033:  33    0.704577    0.775927  1.00277979
:BAN00034:  34    0.732707    1.213335  0.29772708
:BAN00035:  35    0.778379    1.276648  0.00047661
:BAN00036:  36    0.797856    1.276648  0.00000000
:BAN00037:  37    1.223014    1.409096  0.00000000
:BAN00038:  38    1.229859    1.525461  0.00000000
:BAN00039:  39    1.276155    1.755170  0.00000000
:BAN00040:  40    1.285844    1.755170  0.00000000
        Energy to separate low and high energystates:   -0.02373


:NOE  : NUMBER OF ELECTRONS          =   58.000

:FER  : F E R M I - ENERGY(TETRAH.M.)=   0.7837940090
:GMA  : POTENTIAL AND CHARGE CUT-OFF  12.00 Ry**.5

:POS001: ATOM    1 X,Y,Z = 0.00000 0.00000 0.00000  MULT= 1  ZZ= 26.000  Fe1       

       LMMAX  5
       LM=   0 0  4 0  4 4  6 0  6 4

:CHA001: TOTAL VALENCE CHARGE INSIDE SPHERE   1 =   8.0330    (RMT=  2.4300 )
:PCS001: PARTIAL CHARGES SPHERE =  1 S,P,D,F,      D-EG,D-T2G 
:QTL001: 0.2558 3.2943 4.4397 0.0315 0.0000 0.0000 0.0000 1.8445 2.5952 0.0000 0.0000 0.0000
        Q-s-low E-s-low   Q-p-low E-p-low   Q-d-low E-d-low   Q-f-low E-f-low
:EPL001:  0.0006 -2.6665    2.9951 -3.2119    0.0014 -2.6621    0.0006 -2.6627
        Q-s-hi  E-s-hi    Q-p-hi  E-p-hi    Q-d-hi  E-d-hi    Q-f-hi  E-f-hi 
:EPH001:  0.2552  0.2976    0.2992  0.4545    4.4383  0.5865    0.0309  0.5435

:POS002: ATOM    2 X,Y,Z = 0.50000 0.00000 0.00000  MULT= 1  ZZ= 26.000  Fe2       

       LMMAX  5
       LM=   0 0  4 0  4 4  6 0  6 4

:CHA002: TOTAL VALENCE CHARGE INSIDE SPHERE   2 =   8.0330    (RMT=  2.4300 )
:PCS002: PARTIAL CHARGES SPHERE =  2 S,P,D,F,      D-EG,D-T2G 
:QTL002: 0.2558 3.2943 4.4397 0.0315 0.0000 0.0000 0.0000 1.8445 2.5952 0.0000 0.0000 0.0000
        Q-s-low E-s-low   Q-p-low E-p-low   Q-d-low E-d-low   Q-f-low E-f-low
:EPL002:  0.0006 -2.6665    2.9951 -3.2119    0.0014 -2.6621    0.0006 -2.6627
        Q-s-hi  E-s-hi    Q-p-hi  E-p-hi    Q-d-hi  E-d-hi    Q-f-hi  E-f-hi 
:EPH002:  0.2552  0.2976    0.2992  0.4545    4.4383  0.5865    0.0309  0.5435

:POS003: ATOM    3 X,Y,Z = 0.25000 0.25000 0.25000  MULT= 2  ZZ= 45.000  Rh1       

       LMMAX  6
       LM=   0 0  4 0  4 4  6 0  6 4 -3 2

:CHA003: TOTAL VALENCE CHARGE INSIDE SPHERE   3 =   7.3012    (RMT=  2.4300 )
:PCS003: PARTIAL CHARGES SPHERE =  3 S,P,D,F,      D-EG,D-T2G 
:QTL003: 0.1908 3.1905 3.8847 0.0273 0.0000 0.0000 0.0000 1.5619 2.3228 0.0000 0.0000 0.0000
        Q-s-low E-s-low   Q-p-low E-p-low   Q-d-low E-d-low   Q-f-low E-f-low
:EPL003:  0.0002 -3.1228    2.9785 -2.6577    0.0004 -3.1363    0.0002 -3.1347
        Q-s-hi  E-s-hi    Q-p-hi  E-p-hi    Q-d-hi  E-d-hi    Q-f-hi  E-f-hi 
:EPH003:  0.1907  0.2989    0.2120  0.4704    3.8843  0.5350    0.0271  0.5597

:CHA  : TOTAL VALENCE CHARGE INSIDE UNIT CELL =      33.300983

:SUM  : SUM OF EIGENVALUES =         -23.944626338

:GAP (global)   :    0.0    Ry =     0.0   eV (metal)
:GAP (this spin):    0.0    Ry =     0.0   eV (metal)
         Bandranges (emin - emax) and occupancy:
:BAN00017:  17    0.500670    0.595087  1.00000000
:BAN00018:  18    0.500670    0.595087  1.00000000
:BAN00019:  19    0.542921    0.664910  1.00000000
:BAN00020:  20    0.590001    0.668048  1.00000000
:BAN00021:  21    0.594345    0.668048  1.00000000
:BAN00022:  22    0.594345    0.720040  1.00000000
:BAN00023:  23    0.596914    0.756381  1.00000000
:BAN00024:  24    0.596914    0.774960  1.00000000
:BAN00025:  25    0.740283    0.826790  0.52263352
:BAN00026:  26    0.770818    0.831854  0.17569704
:BAN00027:  27    0.785092    0.839362  0.00068596
:BAN00028:  28    0.795471    0.840942  0.00000000
:BAN00029:  29    0.821367    0.868269  0.00000000
:BAN00030:  30    0.829888    0.870462  0.00000000
:BAN00031:  31    0.829896    0.914586  0.00000000
:BAN00032:  32    0.854729    0.914586  0.00000000
        Energy to separate low and high energystates:    0.13356


:NOE  : NUMBER OF ELECTRONS          =   58.000

:FER  : F E R M I - ENERGY(TETRAH.M.)=   0.7837940090
:GMA  : POTENTIAL AND CHARGE CUT-OFF  12.00 Ry**.5

:POS001: ATOM    1 X,Y,Z = 0.00000 0.00000 0.00000  MULT= 1  ZZ= 26.000  Fe1       

       LMMAX  5
       LM=   0 0  4 0  4 4  6 0  6 4

:CHA001: TOTAL VALENCE CHARGE INSIDE SPHERE   1 =   5.0708    (RMT=  2.4300 )
:PCS001: PARTIAL CHARGES SPHERE =  1 S,P,D,F,      D-EG,D-T2G 
:QTL001: 0.2325 3.2473 1.5610 0.0224 0.0000 0.0000 0.0000 0.4945 1.0665 0.0000 0.0000 0.0000
        Q-s-low E-s-low   Q-p-low E-p-low   Q-d-low E-d-low   Q-f-low E-f-low
:EPL001:  0.0005 -2.5658    2.9948 -3.0214    0.0013 -2.5614    0.0006 -2.5617
        Q-s-hi  E-s-hi    Q-p-hi  E-p-hi    Q-d-hi  E-d-hi    Q-f-hi  E-f-hi 
:EPH001:  0.2320  0.4163    0.2525  0.5657    1.5597  0.6259    0.0219  0.6169

:POS002: ATOM    2 X,Y,Z = 0.50000 0.00000 0.00000  MULT= 1  ZZ= 26.000  Fe2       

       LMMAX  5
       LM=   0 0  4 0  4 4  6 0  6 4

:CHA002: TOTAL VALENCE CHARGE INSIDE SPHERE   2 =   5.0708    (RMT=  2.4300 )
:PCS002: PARTIAL CHARGES SPHERE =  2 S,P,D,F,      D-EG,D-T2G 
:QTL002: 0.2325 3.2473 1.5610 0.0224 0.0000 0.0000 0.0000 0.4945 1.0665 0.0000 0.0000 0.0000
        Q-s-low E-s-low   Q-p-low E-p-low   Q-d-low E-d-low   Q-f-low E-f-low
:EPL002:  0.0005 -2.5658    2.9948 -3.0214    0.0013 -2.5614    0.0006 -2.5617
        Q-s-hi  E-s-hi    Q-p-hi  E-p-hi    Q-d-hi  E-d-hi    Q-f-hi  E-f-hi 
:EPH002:  0.2320  0.4163    0.2525  0.5657    1.5597  0.6259    0.0219  0.6169

:POS003: ATOM    3 X,Y,Z = 0.25000 0.25000 0.25000  MULT= 2  ZZ= 45.000  Rh1       

       LMMAX  6
       LM=   0 0  4 0  4 4  6 0  6 4 -3 2

:CHA003: TOTAL VALENCE CHARGE INSIDE SPHERE   3 =   6.1425    (RMT=  2.4300 )
:PCS003: PARTIAL CHARGES SPHERE =  3 S,P,D,F,      D-EG,D-T2G 
:QTL003: 0.1848 3.1596 2.7801 0.0147 0.0000 0.0000 0.0000 0.9115 1.8686 0.0000 0.0000 0.0000
        Q-s-low E-s-low   Q-p-low E-p-low   Q-d-low E-d-low   Q-f-low E-f-low
:EPL003:  0.0002 -2.9557    2.9794 -2.5573    0.0004 -2.9647    0.0002 -2.9615
        Q-s-hi  E-s-hi    Q-p-hi  E-p-hi    Q-d-hi  E-d-hi    Q-f-hi  E-f-hi 
:EPH003:  0.1847  0.4358    0.1802  0.5911    2.7797  0.5785    0.0145  0.6362

:CHA  : TOTAL VALENCE CHARGE INSIDE UNIT CELL =      24.699017

:SUM  : SUM OF EIGENVALUES =         -26.202354023


        1.ATOM      Fe1                   5 CORE STATES
:1S 001: 1S                -512.981769968 Ry
:2S 001: 2S                 -58.930001722 Ry
:2PP001: 2P*                -50.623240366 Ry
:2P 001: 2P                 -49.706609398 Ry
:3S 001: 3S                  -5.700578606 Ry

        2.ATOM      Fe2                   5 CORE STATES
:1S 002: 1S                -512.981769958 Ry
:2S 002: 2S                 -58.930001713 Ry
:2PP002: 2P*                -50.623240357 Ry
:2P 002: 2P                 -49.706609389 Ry
:3S 002: 3S                  -5.700578600 Ry

        3.ATOM      Rh1                  10 CORE STATES
:1S 003: 1S               -1691.282004885 Ry
:2S 003: 2S                -244.183312108 Ry
:2PP003: 2P*               -225.990396277 Ry
:2P 003: 2P                -215.361661482 Ry
:3S 003: 3S                 -42.717809403 Ry
:3PP003: 3P*                -35.600552784 Ry
:3P 003: 3P                 -33.771923594 Ry
:3DD003: 3D*                -21.176928145 Ry
:3D 003: 3D                 -20.816339125 Ry
:4S 003: 4S                  -5.003306941 Ry

        1.ATOM      Fe1                   5 CORE STATES
:1S 001: 1S                -512.980987517 Ry
:2S 001: 2S                 -58.847591767 Ry
:2PP001: 2P*                -50.561804514 Ry
:2P 001: 2P                 -49.643386609 Ry
:3S 001: 3S                  -5.507338447 Ry

        2.ATOM      Fe2                   5 CORE STATES
:1S 002: 1S                -512.980987507 Ry
:2S 002: 2S                 -58.847591758 Ry
:2PP002: 2P*                -50.561804505 Ry
:2P 002: 2P                 -49.643386600 Ry
:3S 002: 3S                  -5.507338441 Ry

        3.ATOM      Rh1                  10 CORE STATES
:1S 003: 1S               -1691.280894529 Ry
:2S 003: 2S                -244.162672996 Ry
:2PP003: 2P*               -225.975378160 Ry
:2P 003: 2P                -215.345597461 Ry
:3S 003: 3S                 -42.706178253 Ry
:3PP003: 3P*                -35.587128519 Ry
:3P 003: 3P                 -33.758921440 Ry
:3DD003: 3D*                -21.157235942 Ry
:3D 003: 3D                 -20.796706260 Ry
:4S 003: 4S                  -4.909770677 Ry
:CINT001 Core Integral Atom   1 Up    5.999610 Dn   5.999595 Total  11.999205
:CINT002 Core Integral Atom   2 Up    5.999610 Dn   5.999595 Total  11.999205
:CINT003 Core Integral Atom   3 Up   14.998606 Dn  14.998648 Total  29.997254

       DENSITY AT NUCLEUS
        JATOM        VALENCE       SEMI-CORE          CORE           TOTAL
:RTO001:   1        7.243683        0.000000    15301.749131    15308.992815
:RTO002:   2        7.243683        0.000000    15301.749131    15308.992815
:RTO003:   3       24.551096        0.000000   155310.799854   155335.350950

       HYPERFINE FIELDS FOR THOMSON RADIUS
:HFF001:          161.435           0.000        -306.473        -145.038 (KGAUSS)
:HFF002:          161.435           0.000        -306.473        -145.038 (KGAUSS)
:HFF003:           90.512           0.000        -460.080        -369.568 (KGAUSS)
     
       CHARGES OF NEW CHARGE DENSITY
:NTO   : INTERSTITIAL     UP =     2.632550 DN =     2.272506 TOT =     4.905056
:NPC   : PW Pseudocharge  UP =     6.353932 DN =     5.145807 TOT =    11.499739
:NTO001: CHARGE SPHERE  1 UP =    14.032580 DN =    11.070345 TOT =    25.102925
:NTO002: CHARGE SPHERE  2 UP =    14.032580 DN =    11.070345 TOT =    25.102925
:NTO003: CHARGE SPHERE  3 UP =    22.299834 DN =    21.141140 TOT =    43.440974

:NEC01: NUCLEAR AND ELECTRONIC CHARGE    142.00000   141.99285
     
       CHARGES OF OLD CHARGE DENSITY
:OTO   : INTERSTITIAL     UP =     2.694007 DN =     1.139488 TOT =     3.833496
:OPC   : PW Pseudocharge  UP =     7.442389 DN =     4.406815 TOT =    11.849204
:OTO001: CHARGE SPHERE  1 UP =    14.098116 DN =    11.154339 TOT =    25.252455
:OTO002: CHARGE SPHERE  2 UP =    14.098116 DN =    11.154339 TOT =    25.252455
:OTO003: CHARGE SPHERE  3 UP =    23.031412 DN =    20.799385 TOT =    43.830797

:NEC02: NUCLEAR AND ELECTRONIC CHARGE    142.00000   142.00000
     
       CONVERGENCE TEST
:DTO001: DIFFERENCE SPHERE  1 UP =  0.0503721 DN =  0.5747884 TOT =  0.6251605
:DTO002: DIFFERENCE SPHERE  2 UP =  0.0503722 DN =  0.5747884 TOT =  0.6251605
:DTO003: DIFFERENCE SPHERE  3 UP =  0.5094069 DN =  0.2106684 TOT =  0.7200753

:DIS  :  CHARGE DISTANCE       ( 0.5747884 for atom    1 spin 2)      1.3452359
 PW Mixed is           49
 
******************************************************
* MULTISECANT MIXING VER9 RELEASE 10.4.0              *
* Slow Mode, cautious                                *
* Fixed density scale                                *
* Regularization       1.000E-04                     *
* Step Trust Radius    0.75000                       *
* Trust Upper Limit    2.000E+00                     *
* Max Number of Memory Steps   12                    *
******************************************************
 
:PWTMP   1.1765E+02  4.5917E+02  3.5807E+02
:PLANE:  PW TOTAL      2.6946 DISTAN   8.03E-01  2.98E+01 %
:CHARG:  CLM/ATOM    212.0492 DISTAN   3.97E-01  1.87E-01 %
INFO: Reducing dbase  1.00000E-02 1.34524E+00 8.62186E-03
 
Step History
        DMIX         DMIXT        Red     Pred      Trust     Lambda    MagRel    MagAbs     Beta
  1   3.5000E-02   3.5000E-02 -1.00E+00  1.00E+00 -1.00E+01  1.00E+00  3.50E-02  3.50E-02  1.00E+00
  2   2.0359E-02   2.0359E-02  6.82E-01  1.00E+00 -1.00E+01  1.00E+00  2.04E-02  3.91E-02  1.00E+00
  3   2.7920E-02   2.7920E-02 -1.00E+00  1.00E+00 -1.00E+01  1.00E+00  2.79E-02  3.66E-02  1.00E+00
:JACOBIANS    7.440E-01   5.246E-04
  
:NORMS:  1/Froebius, Min, Max, Used   0.9964E+00  0.4971E+00  0.9965E+00  0.9965E+00
:INFO :  Number of Memory Steps    2 Skipping    0
:INFO :  SLambda=    0.0473823764  Max    0.0473823764
:PREDicted Charge, CTotal, PW Trust    3.093E-03   8.519E-03   4.381E-01
:PREDicted DMix, Beta, BLim   6.8694E-02  9.9515E-01  9.2174E-01

Eigenvalues, unscaled except for SY+YY
   #     SY Real        SY Imag          SS             YY         SY+YY Real      SY+YY Imag
   1  -5.107026E-15   0.000000E+00   1.985614E+00   1.999387E+00   6.134466E-04   0.000000E+00
   2   1.987509E+00   0.000000E+00   0.000000E+00   6.134439E-04   2.093559E+00   0.000000E+00
 
:INFO :  Singular value  2.094E+00 Weight  1.000E+00 Projection  1.200E-04
:INFO :  Singular value  6.134E-04 Weight  9.040E-01 Projection  1.852E+00
:RANK :  ACTIVE   1.90/2  =  95.20 % ; YY RANK   1.90/2  =  95.20 %
 
:DLIM :  Beta Active  9.964E-01
:BLIM :  VZERO Control Off
:TRUST:  Step 1.68E-01  Charge 7.50E-02 (e) CTO  2.50E-01 (e) PW  3.85E-01 (e)
:DIRM :  MEMORY  2/12 SCALE   1.000 RED  0.96 PRED  1.00 NEXT  1.00 BETA  1.00
:TRAVE:  Charge 1.93E-02 (e) CTO  5.17E-02 (e) PW  2.95E-02 (e)
:DIRP :  |MSR1|= 1.928E-02 |PRATT|= 4.015E-01 ANGLE=   0.3 DEGREES
:DIRQ :  |MSR1|= 5.747E-02 |PRATT|= 1.192E+00 ANGLE=   2.2 DEGREES
:DIRT :  |MSR1|= 6.062E-02 |PRATT|= 1.258E+00 ANGLE=   2.1 DEGREES
:MIX  :   MSD1   REGULARIZATION:  2.00E-04 GREED: 0.04825  Newton 1.00  0.0482                
     
       CHARGES OF MIXED CHARGE DENSITY
:CTO   : INTERSTITIAL     UP =     2.691250 DN =     1.193934 TOT =     3.885185
:CPC   : PW Pseudocharge  UP =     7.390145 DN =     4.442165 TOT =    11.832310
:CTO001: CHARGE SPHERE  1 UP =    14.094919 DN =    11.150942 TOT =    25.245861
:CTO002: CHARGE SPHERE  2 UP =    14.094919 DN =    11.150942 TOT =    25.245861
:CTO003: CHARGE SPHERE  3 UP =    22.995988 DN =    20.815559 TOT =    43.811547

       SPIN MAGNETIC MOMENTS OF MIXED CHARGE DENSITY
:MMINT:  MAGNETIC MOMENT IN INTERSTITIAL  =    1.49732
:MMI001: MAGNETIC MOMENT IN SPHERE   1    =    2.94398
:MMI002: MAGNETIC MOMENT IN SPHERE   2    =    2.94398
:MMI003: MAGNETIC MOMENT IN SPHERE   3    =    2.18043
:MMTOT:  SPIN MAGNETIC MOMENT IN CELL     =   11.74613

:NEC03: NUCLEAR AND ELECTRONIC CHARGE    142.00000   142.00000

PW CHANGE     H    K    L      Current       Change    Residue
:PUP001:      0    0    0  2.81547886E-02 -1.536E-04 -3.175E-03
:PUP003:      0    0   -2 -1.15168480E-02  2.908E-04  6.012E-03
:PUP004:      0   -2   -2 -4.18381534E-03  1.758E-04  3.769E-03
:PUP005:     -1   -1   -3  1.34114039E-12  1.341E-12  2.846E-11
:PUP006:     -2   -2   -2  3.79656489E-03 -8.339E-05 -1.757E-03
:PUP007:      0    0   -4 -1.30263889E-02  3.008E-04  6.281E-03
:PUP009:      0   -2   -4  1.45211618E-02 -4.538E-04 -9.445E-03
:PUP010:     -2   -2   -4 -3.51609200E-02  1.138E-03  2.367E-02
:PUP013:      0   -4   -4 -8.35394848E-03  3.535E-04  7.340E-03
:PUP015:     -2   -4   -4  3.54777225E-03 -1.484E-04 -3.079E-03
:PUP016:      0    0   -6  8.92433353E-04 -3.363E-05 -6.976E-04
:PUP017:      0   -2   -6 -5.15318643E-03  2.994E-04  6.207E-03
  
:PDN001:      0    0    0  1.57402009E-02  2.508E-04  5.258E-03
:PDN002:     -1   -1   -1  1.17479080E-11  1.175E-11  1.041E-10
:PDN003:      0    0   -2 -6.90628376E-03 -1.036E-05 -2.087E-04
:PDN004:      0   -2   -2  5.70210935E-03 -3.615E-04 -7.485E-03
:PDN005:     -1   -1   -3 -7.45180332E-12 -7.452E-12 -5.580E-11
:PDN006:     -2   -2   -2  2.55386078E-03 -1.496E-05 -3.346E-04
:PDN007:      0    0   -4 -7.44356015E-03  9.464E-05  1.985E-03
:PDN008:     -1   -3   -3 -2.72268061E-12 -2.723E-12 -5.072E-11
:PDN009:      0   -2   -4  1.08507647E-02 -2.012E-04 -4.208E-03
:PDN010:     -2   -2   -4 -2.37103403E-02  8.477E-04  1.760E-02
:PDN012:     -1   -1   -5 -6.72925821E-12 -6.729E-12 -7.129E-12
:PDN013:      0   -4   -4 -6.05079154E-03  2.791E-04  5.787E-03

:ENE  : ********** TOTAL ENERGY IN Ry =       -24232.15956251

 Flat Integration
 New Mode for Coulomb Integral
 Consistent 3/8+Simpson combinations
 Extension of core to zero
 LDM version in phi
 Fifth-order quadrature in outwin


            ---------
:ITE004:  4. ITERATION
            ---------

:NATO :    3 INDEPENDENT AND    4 TOTAL ATOMS IN UNITCELL
       SUBSTANCE: FeRh                                                        

       LATTICE                      = F   
:POT  : POTENTIAL OPTION EX_PBE EC_PBE VX_PBE VC_PBE
:LAT  : LATTICE CONSTANTS= 11.27222 11.27222 11.27222    1.571    1.571    1.571
:VOL  : UNIT CELL VOLUME =     358.07036
       MODE OF CALCULATION IS       = RELA
       SPINPOLARIZED CALCULATION
:IFFT  : FFT-parameters:   90   90   90 Factor: 2.00


   CONVERGENCE PARAMETER FOR PSEUDOCHARGE: NCON=  9
   MAXIMAL VALUE OF RMT(JATOM)*ABSK(NKK) : RK  =29.05063


:VKCOUL :  VK-COUL convergence: 0.499E-07
       ATOMNUMBER=  1 Fe1        VCOUL-ZERO =  0.62207E+00
       ATOMNUMBER=  2 Fe2        VCOUL-ZERO =  0.62207E+00
       ATOMNUMBER=  3 Rh1        VCOUL-ZERO =  0.59170E+00
:FIT001: LUSE= 13 SIGMA OF V-XC FIT FOR ATOM  1  0.6396683E-02
:FIT001: LUSE= 13 SIGMA OF V-XC FIT FOR ATOM  1  0.6789265E-03
:FIT002: LUSE= 13 SIGMA OF V-XC FIT FOR ATOM  2  0.6396683E-02
:FIT002: LUSE= 13 SIGMA OF V-XC FIT FOR ATOM  2  0.6789265E-03
:FIT003: LUSE= 13 SIGMA OF V-XC FIT FOR ATOM  3  0.1196385E-02
:FIT003: LUSE= 13 SIGMA OF V-XC FIT FOR ATOM  3  0.4222385E-03
:DEN  : DENSITY INTEGRAL  =         -9878.03762089   (Ry)
       ELS_POTENTIAL_AT Z=0 and Z=0.5:  -0.20292  -0.20292
       ELS_POTENTIAL_AT Y=0 and Y=0.5:   0.00000   0.00000
:VZERO:v0,v0c,v0x  -0.77884  -0.20292  -0.57592 v5,v5c,v5x  -0.77884  -0.20292  -0.57592
:VZERY:v0,v0c,v0x  -0.82925   0.00000  -0.82925 v5,v5c,v5x  -0.82925   0.00000  -0.82925
:VZERX:v0,v0c,v0x  -0.82925   0.00000  -0.82925 v5,v5c,v5x  -0.82925   0.00000  -0.82925
:LMAX-WF:   10   Non-Spherical LMAX:   4

          ATOMIC SPHERE DEPENDENT PARAMETERS FOR ATOM  Fe1       
:e__0001: OVERALL ENERGY PARAMETER IS    0.5773
          OVERALL BASIS SET ON ATOM IS LAPW
:E1_0001: E( 1)=    0.5773
             APW+lo
:E1_0001: E( 1)=   -3.2390   E(BOTTOM)=   -3.271   E(TOP)=   -3.207  1  2   173
             LOCAL ORBITAL
:E2_0001: E( 2)=    0.5486   E(BOTTOM)=    0.310   E(TOP)=    0.787  0  1   121
             APW+lo
:E0_0001: E( 0)=    0.5773
             APW+lo

          ATOMIC SPHERE DEPENDENT PARAMETERS FOR ATOM  Fe2       
:e__0002: OVERALL ENERGY PARAMETER IS    0.5773
          OVERALL BASIS SET ON ATOM IS LAPW
:E1_0002: E( 1)=    0.5773
             APW+lo
:E1_0002: E( 1)=   -3.2390   E(BOTTOM)=   -3.271   E(TOP)=   -3.207  1  2   173
             LOCAL ORBITAL
:E2_0002: E( 2)=    0.5486   E(BOTTOM)=    0.310   E(TOP)=    0.787  0  1   121
             APW+lo
:E0_0002: E( 0)=    0.5773
             APW+lo

          ATOMIC SPHERE DEPENDENT PARAMETERS FOR ATOM  Rh1       
:e__0003: OVERALL ENERGY PARAMETER IS    0.5773
          OVERALL BASIS SET ON ATOM IS LAPW
:E1_0003: E( 1)=    0.5773
             APW+lo
:E1_0003: E( 1)=   -2.6960   E(BOTTOM)=   -2.795   E(TOP)=   -2.597  2  3   164
             LOCAL ORBITAL
:E2_0003: E( 2)=    0.5600   E(BOTTOM)=    0.107   E(TOP)=    1.013  1  2   151
             APW+lo
:E0_0003: E( 0)=    0.5773
             APW+lo

       K=   0.00000   0.00000   0.00000            1
:RKM  : MATRIX SIZE   185LOs:  48  RKM= 6.64  WEIGHT= 1.00  PGR:    
       EIGENVALUES ARE:
:EIG00001:      -3.2330289   -3.2330289   -3.2330289   -3.2312568   -3.2312568
:EIG00006:      -3.2312568   -2.6790574   -2.6790574   -2.6790574   -2.6712651
:EIG00011:      -2.6712651   -2.6712651    0.0253519    0.2851307    0.2851307
:EIG00016:       0.3591788    0.3591788    0.3591788    0.4785020    0.4785020
:EIG00021:       0.4785020    0.5120045    0.5120045    0.5120045    0.6487604
:EIG00026:       0.6487604    0.6589003    0.6589003    0.7131224    0.7131224
:EIG00031:       0.7440362    0.7440362    0.7440362    1.2105838    1.2691147
:EIG00036:       1.2691147    1.2691147    1.2839348    1.2839348    1.2839348
:EIG00041:       1.3924209    1.3924209    1.3924209    1.4504735    1.9383929
:EIG00046:       1.9383929    2.0266218    2.1066726    2.1066726    2.1066726
 
       ********************************************************

:KPT   :      NUMBER OF K-POINTS:    47
:LMAX-WF:   10   Non-Spherical LMAX:   4

          ATOMIC SPHERE DEPENDENT PARAMETERS FOR ATOM  Fe1       
:e__0001: OVERALL ENERGY PARAMETER IS    0.5773
          OVERALL BASIS SET ON ATOM IS LAPW
:E1_0001: E( 1)=    0.5773
             APW+lo
:E1_0001: E( 1)=   -3.0470   E(BOTTOM)=   -3.080   E(TOP)=   -3.014  1  2   189
             LOCAL ORBITAL
:E2_0001: E( 2)=    0.7309   E(BOTTOM)=    0.482   E(TOP)=    0.980  0  1   126
             APW+lo
:E0_0001: E( 0)=    0.5773
             APW+lo

          ATOMIC SPHERE DEPENDENT PARAMETERS FOR ATOM  Fe2       
:e__0002: OVERALL ENERGY PARAMETER IS    0.5773
          OVERALL BASIS SET ON ATOM IS LAPW
:E1_0002: E( 1)=    0.5773
             APW+lo
:E1_0002: E( 1)=   -3.0470   E(BOTTOM)=   -3.080   E(TOP)=   -3.014  1  2   189
             LOCAL ORBITAL
:E2_0002: E( 2)=    0.7309   E(BOTTOM)=    0.482   E(TOP)=    0.980  0  1   126
             APW+lo
:E0_0002: E( 0)=    0.5773
             APW+lo

          ATOMIC SPHERE DEPENDENT PARAMETERS FOR ATOM  Rh1       
:e__0003: OVERALL ENERGY PARAMETER IS    0.5773
          OVERALL BASIS SET ON ATOM IS LAPW
:E1_0003: E( 1)=    0.5773
             APW+lo
:E1_0003: E( 1)=   -2.5975   E(BOTTOM)=   -2.695   E(TOP)=   -2.500  2  3   170
             LOCAL ORBITAL
:E2_0003: E( 2)=    0.5773   E(BOTTOM)=    0.219   E(TOP)= -200.000  1 -1    89
             APW+lo
:E0_0003: E( 0)=    0.5773
             APW+lo

       K=   0.00000   0.00000   0.00000            1
:RKM  : MATRIX SIZE   185LOs:  48  RKM= 6.64  WEIGHT= 1.00  PGR:    
       EIGENVALUES ARE:
:EIG00001:      -3.0407836   -3.0407836   -3.0407836   -3.0389580   -3.0389580
:EIG00006:      -3.0389580   -2.5802806   -2.5802806   -2.5802806   -2.5728243
:EIG00011:      -2.5728243   -2.5728243    0.1762326    0.4266440    0.4266440
:EIG00016:       0.4886904    0.4886904    0.4886904    0.6522092    0.6522092
:EIG00021:       0.6522092    0.6553606    0.6553606    0.6553606    0.8116918
:EIG00026:       0.8116918    0.8237605    0.8237605    0.8474532    0.8474532
:EIG00031:       0.8980079    0.8980079    0.8980079    1.3634964    1.4328855
:EIG00036:       1.4328855    1.4328855    1.4352718    1.4352718    1.4352718
:EIG00041:       1.5320478    1.5320478    1.5320478    1.5800514    2.1043399
:EIG00046:       2.1043399    2.1653945    2.2630828    2.2630828    2.2630828
 
       ********************************************************

:KPT   :      NUMBER OF K-POINTS:    47
:GAP (global)   :    0.0    Ry =     0.0   eV (metal)
:GAP (this spin):    0.0    Ry =     0.0   eV (metal)
         Bandranges (emin - emax) and occupancy:
:BAN00025:  25    0.573028    0.649494  1.00000000
:BAN00026:  26    0.583438    0.654615  1.00000000
:BAN00027:  27    0.605959    0.658900  1.00000000
:BAN00028:  28    0.617666    0.663452  1.00000000
:BAN00029:  29    0.640613    0.713122  1.00000000
:BAN00030:  30    0.656943    0.713122  1.00000000
:BAN00031:  31    0.658891    0.744036  1.00000000
:BAN00032:  32    0.678469    0.744036  1.00000000
:BAN00033:  33    0.689893    0.759766  1.00277728
:BAN00034:  34    0.718556    1.210584  0.29884359
:BAN00035:  35    0.762191    1.269115  0.00088738
:BAN00036:  36    0.786555    1.269115  0.00000000
:BAN00037:  37    1.219196    1.401974  0.00000000
:BAN00038:  38    1.222150    1.520861  0.00000000
:BAN00039:  39    1.272366    1.753573  0.00000000
:BAN00040:  40    1.283935    1.754906  0.00000000
        Energy to separate low and high energystates:   -0.02465


:NOE  : NUMBER OF ELECTRONS          =   58.000

:FER  : F E R M I - ENERGY(TETRAH.M.)=   0.7696186855
:GMA  : POTENTIAL AND CHARGE CUT-OFF  12.00 Ry**.5

:POS001: ATOM    1 X,Y,Z = 0.00000 0.00000 0.00000  MULT= 1  ZZ= 26.000  Fe1       

       LMMAX  5
       LM=   0 0  4 0  4 4  6 0  6 4

:CHA001: TOTAL VALENCE CHARGE INSIDE SPHERE   1 =   8.0451    (RMT=  2.4300 )
:PCS001: PARTIAL CHARGES SPHERE =  1 S,P,D,F,      D-EG,D-T2G 
:QTL001: 0.2544 3.2884 4.4599 0.0308 0.0000 0.0000 0.0000 1.8494 2.6105 0.0000 0.0000 0.0000
        Q-s-low E-s-low   Q-p-low E-p-low   Q-d-low E-d-low   Q-f-low E-f-low
:EPL001:  0.0006 -2.6845    2.9952 -3.2319    0.0014 -2.6801    0.0006 -2.6807
        Q-s-hi  E-s-hi    Q-p-hi  E-p-hi    Q-d-hi  E-d-hi    Q-f-hi  E-f-hi 
:EPH001:  0.2539  0.2941    0.2933  0.4476    4.4586  0.5719    0.0303  0.5326

:POS002: ATOM    2 X,Y,Z = 0.50000 0.00000 0.00000  MULT= 1  ZZ= 26.000  Fe2       

       LMMAX  5
       LM=   0 0  4 0  4 4  6 0  6 4

:CHA002: TOTAL VALENCE CHARGE INSIDE SPHERE   2 =   8.0451    (RMT=  2.4300 )
:PCS002: PARTIAL CHARGES SPHERE =  2 S,P,D,F,      D-EG,D-T2G 
:QTL002: 0.2544 3.2884 4.4599 0.0308 0.0000 0.0000 0.0000 1.8494 2.6105 0.0000 0.0000 0.0000
        Q-s-low E-s-low   Q-p-low E-p-low   Q-d-low E-d-low   Q-f-low E-f-low
:EPL002:  0.0006 -2.6845    2.9952 -3.2319    0.0014 -2.6801    0.0006 -2.6807
        Q-s-hi  E-s-hi    Q-p-hi  E-p-hi    Q-d-hi  E-d-hi    Q-f-hi  E-f-hi 
:EPH002:  0.2539  0.2941    0.2933  0.4476    4.4586  0.5719    0.0303  0.5326

:POS003: ATOM    3 X,Y,Z = 0.25000 0.25000 0.25000  MULT= 2  ZZ= 45.000  Rh1       

       LMMAX  6
       LM=   0 0  4 0  4 4  6 0  6 4 -3 2

:CHA003: TOTAL VALENCE CHARGE INSIDE SPHERE   3 =   7.3112    (RMT=  2.4300 )
:PCS003: PARTIAL CHARGES SPHERE =  3 S,P,D,F,      D-EG,D-T2G 
:QTL003: 0.1894 3.1862 3.9013 0.0264 0.0000 0.0000 0.0000 1.5667 2.3347 0.0000 0.0000 0.0000
        Q-s-low E-s-low   Q-p-low E-p-low   Q-d-low E-d-low   Q-f-low E-f-low
:EPL003:  0.0001 -3.1429    2.9788 -2.6758    0.0004 -3.1563    0.0002 -3.1548
        Q-s-hi  E-s-hi    Q-p-hi  E-p-hi    Q-d-hi  E-d-hi    Q-f-hi  E-f-hi 
:EPH003:  0.1892  0.2942    0.2074  0.4629    3.9009  0.5241    0.0262  0.5467

:CHA  : TOTAL VALENCE CHARGE INSIDE UNIT CELL =      33.302508

:SUM  : SUM OF EIGENVALUES =         -24.410685223

:GAP (global)   :    0.0    Ry =     0.0   eV (metal)
:GAP (this spin):    0.0    Ry =     0.0   eV (metal)
         Bandranges (emin - emax) and occupancy:
:BAN00017:  17    0.488690    0.581836  1.00000000
:BAN00018:  18    0.488690    0.581836  1.00000000
:BAN00019:  19    0.530067    0.652209  1.00000000
:BAN00020:  20    0.577177    0.653575  1.00000000
:BAN00021:  21    0.581093    0.653575  1.00000000
:BAN00022:  22    0.581093    0.705239  1.00000000
:BAN00023:  23    0.584223    0.740956  1.00000000
:BAN00024:  24    0.584223    0.760440  1.00000000
:BAN00025:  25    0.729348    0.811944  0.52389309
:BAN00026:  26    0.758107    0.816347  0.17362053
:BAN00027:  27    0.772066    0.823761 -0.00002187
:BAN00028:  28    0.780947    0.826111  0.00000000
:BAN00029:  29    0.806764    0.852363  0.00000000
:BAN00030:  30    0.816575    0.854426  0.00000000
:BAN00031:  31    0.817581    0.898008  0.00000000
:BAN00032:  32    0.839362    0.898008  0.00000000
        Energy to separate low and high energystates:    0.12623


:NOE  : NUMBER OF ELECTRONS          =   58.000

:FER  : F E R M I - ENERGY(TETRAH.M.)=   0.7696186855
:GMA  : POTENTIAL AND CHARGE CUT-OFF  12.00 Ry**.5

:POS001: ATOM    1 X,Y,Z = 0.00000 0.00000 0.00000  MULT= 1  ZZ= 26.000  Fe1       

       LMMAX  5
       LM=   0 0  4 0  4 4  6 0  6 4

:CHA001: TOTAL VALENCE CHARGE INSIDE SPHERE   1 =   5.0693    (RMT=  2.4300 )
:PCS001: PARTIAL CHARGES SPHERE =  1 S,P,D,F,      D-EG,D-T2G 
:QTL001: 0.2307 3.2426 1.5664 0.0222 0.0000 0.0000 0.0000 0.4950 1.0714 0.0000 0.0000 0.0000
        Q-s-low E-s-low   Q-p-low E-p-low   Q-d-low E-d-low   Q-f-low E-f-low
:EPL001:  0.0005 -2.5855    2.9949 -3.0396    0.0013 -2.5812    0.0005 -2.5816
        Q-s-hi  E-s-hi    Q-p-hi  E-p-hi    Q-d-hi  E-d-hi    Q-f-hi  E-f-hi 
:EPH001:  0.2302  0.4072    0.2477  0.5533    1.5651  0.6137    0.0216  0.6035

:POS002: ATOM    2 X,Y,Z = 0.50000 0.00000 0.00000  MULT= 1  ZZ= 26.000  Fe2       

       LMMAX  5
       LM=   0 0  4 0  4 4  6 0  6 4

:CHA002: TOTAL VALENCE CHARGE INSIDE SPHERE   2 =   5.0693    (RMT=  2.4300 )
[...]
             APW+lo
:E1_0001: E( 1)=   -3.1651   E(BOTTOM)=   -3.198   E(TOP)=   -3.133  1  2   181
             LOCAL ORBITAL
:E2_0001: E( 2)=    0.6245   E(BOTTOM)=    0.381   E(TOP)=    0.868  0  1   123
             APW+lo
:E0_0001: E( 0)=    0.4545
             APW+lo

          ATOMIC SPHERE DEPENDENT PARAMETERS FOR ATOM  Fe2       
:e__0002: OVERALL ENERGY PARAMETER IS    0.4545
          OVERALL BASIS SET ON ATOM IS LAPW
:E1_0002: E( 1)=    0.4545
             APW+lo
:E1_0002: E( 1)=   -3.1654   E(BOTTOM)=   -3.198   E(TOP)=   -3.133  1  2   179
             LOCAL ORBITAL
:E2_0002: E( 2)=    0.6242   E(BOTTOM)=    0.381   E(TOP)=    0.868  0  1   124
             APW+lo
:E0_0002: E( 0)=    0.4545
             APW+lo

          ATOMIC SPHERE DEPENDENT PARAMETERS FOR ATOM  Rh1       
:e__0003: OVERALL ENERGY PARAMETER IS    0.4545
          OVERALL BASIS SET ON ATOM IS LAPW
:E1_0003: E( 1)=    0.4545
             APW+lo
:E1_0003: E( 1)=   -2.7534   E(BOTTOM)=   -2.848   E(TOP)=   -2.659  2  3   159
             LOCAL ORBITAL
:E2_0003: E( 2)=    0.5333   E(BOTTOM)=    0.096   E(TOP)=    0.970  1  2   142
             APW+lo
:E0_0003: E( 0)=    0.4545
             APW+lo

       K=   0.00000   0.00000   0.00000            1
:RKM  : MATRIX SIZE   185LOs:  48  RKM= 6.64  WEIGHT= 1.00  PGR:    
       EIGENVALUES ARE:
:EIG00001:      -3.1593219   -3.1593219   -3.1593219   -3.1575691   -3.1575691
:EIG00006:      -3.1575691   -2.7372562   -2.7372562   -2.7372562   -2.7300554
:EIG00011:      -2.7300554   -2.7300554    0.0490175    0.3034550    0.3034550
:EIG00016:       0.3517426    0.3517426    0.3517426    0.5223371    0.5223371
:EIG00021:       0.5223371    0.5309246    0.5309246    0.5309246    0.6894008
:EIG00026:       0.6894008    0.7045618    0.7045618    0.7506188    0.7506188
:EIG00031:       0.7703700    0.7703700    0.7703700    1.2600912    1.2956539
:EIG00036:       1.2956539    1.2956539    1.3053640    1.3053640    1.3053640
:EIG00041:       1.3948288    1.3948288    1.3948288    1.4573077    1.9522371
:EIG00046:       1.9522371    2.0687576    2.1255550    2.1255550    2.1255550
 
       ********************************************************

:KPT   :      NUMBER OF K-POINTS:    47
:GAP (global)   :    0.0    Ry =     0.0   eV (metal)
:GAP (this spin):    0.0    Ry =     0.0   eV (metal)
         Bandranges (emin - emax) and occupancy:
:BAN00024:  24    0.345984    0.478794  1.00000000
:BAN00025:  25    0.458599    0.510257  1.00000000
:BAN00026:  26    0.474714    0.510257  1.00000000
:BAN00027:  27    0.481809    0.517338  1.00000000
:BAN00028:  28    0.488740    0.534659  1.00000000
:BAN00029:  29    0.503116    0.613186  1.00000000
:BAN00030:  30    0.515862    0.613186  1.00000000
:BAN00031:  31    0.521466    0.620223  1.00000000
:BAN00032:  32    0.555997    0.634671  1.00000000
:BAN00033:  33    0.568552    0.634671  1.00000000
:BAN00034:  34    0.608580    1.176924  0.21104403
:BAN00035:  35    0.665709    1.225639  0.00000000
:BAN00036:  36    0.709693    1.225639  0.00000000
:BAN00037:  37    1.167860    1.353873  0.00000000
:BAN00038:  38    1.172476    1.485484  0.00000000
:BAN00039:  39    1.245005    1.727094  0.00000000
        Energy to separate low and high energystates:   -0.02404


:NOE  : NUMBER OF ELECTRONS          =   58.000

:FER  : F E R M I - ENERGY(TETRAH.M.)=   0.6541063256
:GMA  : POTENTIAL AND CHARGE CUT-OFF  12.00 Ry**.5

:POS001: ATOM    1 X,Y,Z = 0.00000 0.00000 0.00000  MULT= 1  ZZ= 26.000  Fe1       

       LMMAX  5
       LM=   0 0  4 0  4 4  6 0  6 4

:CHA001: TOTAL VALENCE CHARGE INSIDE SPHERE   1 =   8.1605    (RMT=  2.4300 )
:PCS001: PARTIAL CHARGES SPHERE =  1 S,P,D,F,      D-EG,D-T2G 
:QTL001: 0.2479 3.2363 4.6402 0.0257 0.0000 0.0000 0.0000 1.8961 2.7441 0.0000 0.0000 0.0000
        Q-s-low E-s-low   Q-p-low E-p-low   Q-d-low E-d-low   Q-f-low E-f-low
:EPL001:  0.0005 -2.8071    2.9959 -3.4207    0.0012 -2.8032    0.0005 -2.8036
        Q-s-hi  E-s-hi    Q-p-hi  E-p-hi    Q-d-hi  E-d-hi    Q-f-hi  E-f-hi 
:EPH001:  0.2474  0.2721    0.2405  0.3925    4.6390  0.4249    0.0251  0.4535

:POS002: ATOM    2 X,Y,Z = 0.50000 0.00000 0.00000  MULT= 1  ZZ= 26.000  Fe2       

       LMMAX  5
       LM=   0 0  4 0  4 4  6 0  6 4

:CHA002: TOTAL VALENCE CHARGE INSIDE SPHERE   2 =   8.1602    (RMT=  2.4300 )
:PCS002: PARTIAL CHARGES SPHERE =  2 S,P,D,F,      D-EG,D-T2G 
:QTL002: 0.2479 3.2365 4.6397 0.0257 0.0000 0.0000 0.0000 1.8962 2.7435 0.0000 0.0000 0.0000
        Q-s-low E-s-low   Q-p-low E-p-low   Q-d-low E-d-low   Q-f-low E-f-low
:EPL002:  0.0005 -2.8071    2.9959 -3.4211    0.0012 -2.8032    0.0005 -2.8036
        Q-s-hi  E-s-hi    Q-p-hi  E-p-hi    Q-d-hi  E-d-hi    Q-f-hi  E-f-hi 
:EPH002:  0.2474  0.2720    0.2407  0.3926    4.6385  0.4246    0.0252  0.4536

:POS003: ATOM    3 X,Y,Z = 0.25000 0.25000 0.25000  MULT= 2  ZZ= 45.000  Rh1       

       LMMAX  6
       LM=   0 0  4 0  4 4  6 0  6 4 -3 2

:CHA003: TOTAL VALENCE CHARGE INSIDE SPHERE   3 =   7.3457    (RMT=  2.4300 )
:PCS003: PARTIAL CHARGES SPHERE =  3 S,P,D,F,      D-EG,D-T2G 
:QTL003: 0.1713 3.1399 4.0084 0.0195 0.0000 0.0000 0.0000 1.6031 2.4053 0.0000 0.0000 0.0000
        Q-s-low E-s-low   Q-p-low E-p-low   Q-d-low E-d-low   Q-f-low E-f-low
:EPL003:  0.0001 -3.3211    2.9810 -2.7990    0.0003 -3.3372    0.0002 -3.3367
        Q-s-hi  E-s-hi    Q-p-hi  E-p-hi    Q-d-hi  E-d-hi    Q-f-hi  E-f-hi 
:EPH003:  0.1711  0.2601    0.1589  0.3932    4.0081  0.4487    0.0194  0.4256

:CHA  : TOTAL VALENCE CHARGE INSIDE UNIT CELL =      33.211044

:SUM  : SUM OF EIGENVALUES =         -28.442342988

:GAP (global)   :    0.0    Ry =     0.0   eV (metal)
:GAP (this spin):    0.0    Ry =     0.0   eV (metal)
         Bandranges (emin - emax) and occupancy:
:BAN00017:  17    0.351743    0.448545  1.00000000
:BAN00018:  18    0.351743    0.448547  1.00000000
:BAN00019:  19    0.395950    0.522337  1.00000000
:BAN00020:  20    0.448095    0.522337  1.00000000
:BAN00021:  21    0.450228    0.525099  1.00000000
:BAN00022:  22    0.450228    0.585645  1.00000000
:BAN00023:  23    0.453240    0.597816  1.00000000
:BAN00024:  24    0.453307    0.641314  1.00000000
:BAN00025:  25    0.616659    0.698001  0.51273195
:BAN00026:  26    0.639325    0.698001  0.26766767
:BAN00027:  27    0.645305    0.704562  0.00855635
:BAN00028:  28    0.668875    0.711227  0.00000000
:BAN00029:  29    0.680980    0.750619  0.00000000
:BAN00030:  30    0.684597    0.750619  0.00000000
:BAN00031:  31    0.707621    0.770370  0.00000000
:BAN00032:  32    0.722095    0.771960  0.00000000
        Energy to separate low and high energystates:   -0.00098


:NOE  : NUMBER OF ELECTRONS          =   58.000

:FER  : F E R M I - ENERGY(TETRAH.M.)=   0.6541063256
:GMA  : POTENTIAL AND CHARGE CUT-OFF  12.00 Ry**.5

:POS001: ATOM    1 X,Y,Z = 0.00000 0.00000 0.00000  MULT= 1  ZZ= 26.000  Fe1       

       LMMAX  5
       LM=   0 0  4 0  4 4  6 0  6 4

:CHA001: TOTAL VALENCE CHARGE INSIDE SPHERE   1 =   4.9505    (RMT=  2.4300 )
:PCS001: PARTIAL CHARGES SPHERE =  1 S,P,D,F,      D-EG,D-T2G 
:QTL001: 0.2253 3.2444 1.4504 0.0227 0.0000 0.0000 0.0000 0.3979 1.0524 0.0000 0.0000 0.0000
        Q-s-low E-s-low   Q-p-low E-p-low   Q-d-low E-d-low   Q-f-low E-f-low
:EPL001:  0.0005 -2.7423    2.9949 -3.1580    0.0012 -2.7381    0.0005 -2.7404
        Q-s-hi  E-s-hi    Q-p-hi  E-p-hi    Q-d-hi  E-d-hi    Q-f-hi  E-f-hi 
:EPH001:  0.2248  0.2814    0.2494  0.4261    1.4491  0.4949    0.0222  0.4720

:POS002: ATOM    2 X,Y,Z = 0.50000 0.00000 0.00000  MULT= 1  ZZ= 26.000  Fe2       

       LMMAX  5
       LM=   0 0  4 0  4 4  6 0  6 4

:CHA002: TOTAL VALENCE CHARGE INSIDE SPHERE   2 =   4.9531    (RMT=  2.4300 )
:PCS002: PARTIAL CHARGES SPHERE =  2 S,P,D,F,      D-EG,D-T2G 
:QTL002: 0.2253 3.2444 1.4529 0.0227 0.0000 0.0000 0.0000 0.3989 1.0540 0.0000 0.0000 0.0000
        Q-s-low E-s-low   Q-p-low E-p-low   Q-d-low E-d-low   Q-f-low E-f-low
:EPL002:  0.0005 -2.7423    2.9949 -3.1583    0.0012 -2.7381    0.0005 -2.7404
        Q-s-hi  E-s-hi    Q-p-hi  E-p-hi    Q-d-hi  E-d-hi    Q-f-hi  E-f-hi 
:EPH002:  0.2248  0.2814    0.2495  0.4261    1.4517  0.4949    0.0222  0.4720

:POS003: ATOM    3 X,Y,Z = 0.25000 0.25000 0.25000  MULT= 2  ZZ= 45.000  Rh1       

       LMMAX  6
       LM=   0 0  4 0  4 4  6 0  6 4 -3 2

:CHA003: TOTAL VALENCE CHARGE INSIDE SPHERE   3 =   6.2999    (RMT=  2.4300 )
:PCS003: PARTIAL CHARGES SPHERE =  3 S,P,D,F,      D-EG,D-T2G 
:QTL003: 0.1850 3.1652 2.9322 0.0144 0.0000 0.0000 0.0000 0.9668 1.9653 0.0000 0.0000 0.0000
        Q-s-low E-s-low   Q-p-low E-p-low   Q-d-low E-d-low   Q-f-low E-f-low
:EPL003:  0.0002 -3.1011    2.9803 -2.7343    0.0004 -3.1084    0.0002 -3.1002
        Q-s-hi  E-s-hi    Q-p-hi  E-p-hi    Q-d-hi  E-d-hi    Q-f-hi  E-f-hi 
:EPH003:  0.1848  0.2996    0.1848  0.4585    2.9318  0.4345    0.0142  0.5058

:CHA  : TOTAL VALENCE CHARGE INSIDE UNIT CELL =      24.788956

:SUM  : SUM OF EIGENVALUES =         -29.819178517


        1.ATOM      Fe1                   5 CORE STATES
:1S 001: 1S                -513.180269336 Ry
:2S 001: 2S                 -59.166275766 Ry
:2PP001: 2P*                -50.852916465 Ry
:2P 001: 2P                 -49.936823152 Ry
:3S 001: 3S                  -5.917993247 Ry

        2.ATOM      Fe2                   5 CORE STATES
:1S 002: 1S                -513.180788361 Ry
:2S 002: 2S                 -59.166785971 Ry
:2PP002: 2P*                -50.853427881 Ry
:2P 002: 2P                 -49.937334402 Ry
:3S 002: 3S                  -5.918378096 Ry

        3.ATOM      Rh1                  10 CORE STATES
:1S 003: 1S               -1691.495327866 Ry
:2S 003: 2S                -244.397752771 Ry
:2PP003: 2P*               -226.205410446 Ry
:2P 003: 2P                -215.576562492 Ry
:3S 003: 3S                 -42.922116413 Ry
:3PP003: 3P*                -35.804813651 Ry
:3P 003: 3P                 -33.975835579 Ry
:3DD003: 3D*                -21.381457376 Ry
:3D 003: 3D                 -21.020724271 Ry
:4S 003: 4S                  -5.158353782 Ry

        1.ATOM      Fe1                   5 CORE STATES
:1S 001: 1S                -513.180834162 Ry
:2S 001: 2S                 -59.047498010 Ry
:2PP001: 2P*                -50.764714261 Ry
:2P 001: 2P                 -49.846018998 Ry
:3S 001: 3S                  -5.648787358 Ry

        2.ATOM      Fe2                   5 CORE STATES
:1S 002: 1S                -513.181353677 Ry
:2S 002: 2S                 -59.047976091 Ry
:2PP002: 2P*                -50.765202071 Ry
:2P 002: 2P                 -49.846505925 Ry
:3S 002: 3S                  -5.649094361 Ry

        3.ATOM      Rh1                  10 CORE STATES
:1S 003: 1S               -1691.495644881 Ry
:2S 003: 2S                -244.383068766 Ry
:2PP003: 2P*               -226.194955635 Ry
:2P 003: 2P                -215.565317607 Ry
:3S 003: 3S                 -42.914918151 Ry
:3PP003: 3P*                -35.796314414 Ry
:3P 003: 3P                 -33.967670037 Ry
:3DD003: 3D*                -21.368255992 Ry
:3D 003: 3D                 -21.007580993 Ry
:4S 003: 4S                  -5.095620774 Ry
:CINT001 Core Integral Atom   1 Up    5.999661 Dn   5.999609 Total  11.999271
:CINT002 Core Integral Atom   2 Up    5.999661 Dn   5.999609 Total  11.999271
:CINT003 Core Integral Atom   3 Up   14.998745 Dn  14.998709 Total  29.997454

       DENSITY AT NUCLEUS
        JATOM        VALENCE       SEMI-CORE          CORE           TOTAL
:RTO001:   1        6.956487        0.000000    15302.757715    15309.714201
:RTO002:   2        6.957059        0.000000    15302.761103    15309.718162
:RTO003:   3       23.014018        0.000000   155315.013912   155338.027930

       HYPERFINE FIELDS FOR THOMSON RADIUS
:HFF001:          213.467           0.000        -391.689        -178.221 (KGAUSS)
:HFF002:          213.309           0.000        -391.815        -178.506 (KGAUSS)
:HFF003:         -219.256           0.000        -288.034        -507.290 (KGAUSS)
     
       CHARGES OF NEW CHARGE DENSITY
:NTO   : INTERSTITIAL     UP =     2.198920 DN =     2.285642 TOT =     4.484562
:NPC   : PW Pseudocharge  UP =     5.738384 DN =     4.999686 TOT =    10.738070
:NTO001: CHARGE SPHERE  1 UP =    14.160198 DN =    10.950061 TOT =    25.110260
:NTO002: CHARGE SPHERE  2 UP =    14.159903 DN =    10.952684 TOT =    25.112586
:NTO003: CHARGE SPHERE  3 UP =    22.344398 DN =    21.298590 TOT =    43.642988

:NEC01: NUCLEAR AND ELECTRONIC CHARGE    142.00000   141.99338
     
       CHARGES OF OLD CHARGE DENSITY
:OTO   : INTERSTITIAL     UP =     2.202138 DN =     2.284792 TOT =     4.486930
:OPC   : PW Pseudocharge  UP =     5.743107 DN =     5.006886 TOT =    10.749993
:OTO001: CHARGE SPHERE  1 UP =    14.157731 DN =    10.955376 TOT =    25.113107
:OTO002: CHARGE SPHERE  2 UP =    14.158028 DN =    10.954793 TOT =    25.112821
:OTO003: CHARGE SPHERE  3 UP =    22.343182 DN =    21.300389 TOT =    43.643571

:NEC02: NUCLEAR AND ELECTRONIC CHARGE    142.00000   142.00000
     
       CONVERGENCE TEST
:DTO001: DIFFERENCE SPHERE  1 UP =  0.0028673 DN =  0.0075125 TOT =  0.0103798
:DTO002: DIFFERENCE SPHERE  2 UP =  0.0022896 DN =  0.0041241 TOT =  0.0064137
:DTO003: DIFFERENCE SPHERE  3 UP =  0.0014156 DN =  0.0033361 TOT =  0.0047517

:DIS  :  CHARGE DISTANCE       ( 0.0075125 for atom    1 spin 2)      0.0131484
 PW Mixed is           49
 
******************************************************
* MULTISECANT MIXING VER9 RELEASE 10.4.0              *
* Standard Mode with controls                        *
* Fixed density scale                                *
* Regularization       1.000E-04                     *
* Trust Upper Limit    5.000E+00                     *
* Max Number of Memory Steps    8                    *
******************************************************
 
:PWTMP   1.1765E+02  4.5917E+02  3.5807E+02
:PLANE:  PW TOTAL      2.3717 DISTAN   2.56E-03  1.08E-01 %
:CHARG:  CLM/ATOM    212.0473 DISTAN   3.72E-03  1.75E-03 %
 
Step History
        DMIX         DMIXT        Red     Pred      Trust     Lambda    MagRel    MagAbs     Beta
  4   4.8247E-02   4.8247E-02  9.23E-01  9.99E-01  1.68E-01  1.35E+00  4.82E-02  6.06E-02  9.96E-01
  5   1.2062E-01   9.2080E-02  8.33E-01  7.57E-01  2.83E-01  4.09E-01  2.41E-01  2.80E-01  1.00E+00
  6   8.5352E-02   8.5352E-02  8.10E-01  8.89E-01  9.46E-01  1.58E-01  2.44E-01  2.36E-01  1.00E+00
  7   1.5076E-01   1.5076E-01  6.98E-01  7.56E-01  1.22E+00  6.57E-01  3.27E-01  2.56E-01  1.00E+00
  8   3.5000E-01   3.5000E-01  3.68E-01  3.95E-01  2.40E+00  3.00E-01  1.19E+00  6.49E-01  1.00E+00
  9   3.5000E-01   3.5000E-01  3.66E-01  2.86E-01  6.12E+00  7.73E-01  4.66E-01  9.37E-02  9.96E-01
 10   3.4868E-01   3.4868E-01  5.97E-01  4.70E-01  8.16E+00  6.59E-01  9.45E-01  6.95E-02  1.00E+00
 11   2.1355E-01   2.1355E-01  8.07E-01  6.80E-01  1.09E+01  1.00E+00  1.13E-01  4.97E-03  9.38E-01
 12   3.2845E-01   3.2845E-01 -1.00E+00  1.19E-01  1.02E+01  1.00E+00  4.10E-01  1.45E-02  1.00E+00
:JACOBIANS    5.409E-01   1.484E+00
  
:NORMS:  1/Froebius, Min, Max, Used   0.1024E+01  0.5324E+00  0.1292E+01  0.1292E+01
:INFO :  Number of Memory Steps    8 Skipping    3
:INFO :  SLambda=    0.8197840119  Max    0.8197840119
:PREDicted Charge, CTotal, PW Trust    4.031E-03   1.706E-03   3.826E-03
:PREDicted DMix, Beta, BLim   4.1897E-02  1.1926E+00  3.1288E+00

Eigenvalues, unscaled except for SY+YY
   #     SY Real        SY Imag          SS             YY         SY+YY Real      SY+YY Imag
   1   5.128402E+00   0.000000E+00   7.086729E+00   4.242216E+00   8.439954E+00   0.000000E+00
   2   9.839430E-01   0.000000E+00   9.658049E-01   1.353174E+00   2.065216E+00   0.000000E+00
   3   3.600639E-01   0.000000E+00   2.791854E-01   1.273125E+00   1.436155E+00   0.000000E+00
   4   1.628305E-01   0.000000E+00   4.972812E-02   6.511563E-01   9.091966E-01   0.000000E+00
   5   9.439101E-02   0.000000E+00   7.529484E-03   3.592204E-01   5.220592E-01   0.000000E+00
   6   2.054564E-02   0.000000E+00   5.228925E-03   1.206711E-01   1.606640E-01   0.000000E+00
   7   1.989912E-05   0.000000E+00   4.766553E-05   3.411641E-04   1.115998E-04   0.000000E+00
   8   1.364290E-04   0.000000E+00   1.548972E-05   9.551670E-05   4.577665E-04   0.000000E+00
 
:INFO :  Singular value  8.483E+00 Weight  1.000E+00 Projection  3.422E-03
:INFO :  Singular value  2.058E+00 Weight  1.000E+00 Projection  4.523E-03
:INFO :  Singular value  1.436E+00 Weight  1.000E+00 Projection  1.421E-03
:INFO :  Singular value  9.119E-01 Weight  1.000E+00 Projection -3.005E-03
:INFO :  Singular value  5.201E-01 Weight  1.000E+00 Projection -5.466E-03
:INFO :  Singular value  1.606E-01 Weight  1.000E+00 Projection  1.257E-02
:INFO :  Singular value  4.593E-04 Weight  5.397E-01 Projection  5.888E-02
:INFO :  Singular value  1.112E-04 Weight  6.429E-02 Projection  2.297E-04
:RANK :  ACTIVE   6.60/8  =  82.55 % ; YY RANK   6.44/8  =  80.51 %
 
:BLIM :  VZERO Control Off
:TRUST:  Step 1.36E+01  Charge 6.03E-02 (e) CTO  1.80E-01 (e) PW  2.57E-01 (e)
:DIRM :  MEMORY  8/8  SCALE   1.000 RED  0.32 PRED  0.12 NEXT  0.38 
:TRAVE:  Charge 4.06E-03 (e) CTO  7.64E-03 (e) PW  1.25E-02 (e)
:DIRP :  |MSR1|= 1.433E-03 |PRATT|= 1.281E-03 ANGLE=  77.9 DEGREES
:DIRQ :  |MSR1|= 1.070E-02 |PRATT|= 1.116E-02 ANGLE=  30.6 DEGREES
:DIRT :  |MSR1|= 1.080E-02 |PRATT|= 1.123E-02 ANGLE=  31.7 DEGREES
:MIX  :   MSE1   REGULARIZATION:  4.24E-04 GREED: 0.16978  Newton 1.00  0.9611                
     
       CHARGES OF MIXED CHARGE DENSITY
:CTO   : INTERSTITIAL     UP =     2.200052 DN =     2.288616 TOT =     4.488668
:CPC   : PW Pseudocharge  UP =     5.740779 DN =     5.007395 TOT =    10.748174
:CTO001: CHARGE SPHERE  1 UP =    14.160454 DN =    10.951680 TOT =    25.112134
:CTO002: CHARGE SPHERE  2 UP =    14.160501 DN =    10.951456 TOT =    25.111956
:CTO003: CHARGE SPHERE  3 UP =    22.344482 DN =    21.299139 TOT =    43.643621

       SPIN MAGNETIC MOMENTS OF MIXED CHARGE DENSITY
:MMINT:  MAGNETIC MOMENT IN INTERSTITIAL  =   -0.08856
:MMI001: MAGNETIC MOMENT IN SPHERE   1    =    3.20877
:MMI002: MAGNETIC MOMENT IN SPHERE   2    =    3.20904
:MMI003: MAGNETIC MOMENT IN SPHERE   3    =    1.04534
:MMTOT:  SPIN MAGNETIC MOMENT IN CELL     =    8.41994

:NEC03: NUCLEAR AND ELECTRONIC CHARGE    142.00000   142.00000

PW CHANGE     H    K    L      Current       Change    Residue
:PUP001:      0    0    0  2.21767333E-02 -1.233E-05  1.052E-05
:PUP002:     -1   -1   -1 -5.86439355E-07 -7.210E-07 -2.371E-06
:PUP003:      0    0   -2 -5.90155622E-03  6.023E-06 -3.642E-06
:PUP004:      0   -2   -2  2.85251940E-03 -1.697E-05  5.911E-05
:PUP005:     -1   -1   -3 -1.09271150E-08  1.595E-06  4.970E-06
:PUP006:     -2   -2   -2  2.59105313E-03  1.547E-05 -1.458E-06
:PUP007:      0    0   -4 -6.44789721E-03 -1.780E-05  1.198E-05
:PUP008:     -1   -3   -3 -2.32709056E-07 -1.299E-06 -4.817E-06
:PUP009:      0   -2   -4  6.27700919E-03  3.279E-05 -1.718E-07
:PUP010:     -2   -2   -4 -1.26252436E-02 -5.837E-05  2.474E-05
:PUP011:     -3   -3   -3  5.78425989E-08  2.208E-07  7.542E-07
:PUP012:     -1   -1   -5 -2.19750855E-08 -2.617E-07 -8.594E-07
  
:PDN001:      0    0    0  2.03759139E-02  1.210E-05  1.228E-05
:PDN002:     -1   -1   -1 -5.68299626E-08 -7.682E-07 -6.333E-06
:PDN003:      0    0   -2 -7.82347648E-03  4.704E-06 -1.425E-06
:PDN004:      0   -2   -2 -3.20610532E-03 -9.250E-05 -6.254E-05
:PDN005:     -1   -1   -3  6.78807993E-07  5.518E-07  3.896E-06
:PDN006:     -2   -2   -2  2.67609074E-03  5.366E-06 -1.117E-05
:PDN007:      0    0   -4 -5.83900573E-03 -1.492E-05  7.515E-06
:PDN008:     -1   -3   -3 -4.68440458E-07  2.841E-07  2.785E-06
:PDN009:      0   -2   -4  6.92196735E-03  4.077E-06 -1.140E-05
:PDN010:     -2   -2   -4 -6.31423002E-03 -4.281E-06  5.165E-05
:PDN011:     -3   -3   -3  1.00310378E-07  4.243E-08  1.413E-07
:PDN012:     -1   -1   -5 -2.56646652E-07  1.004E-07  1.188E-06

:ENE  : ********** TOTAL ENERGY IN Ry =       -24232.22842994

