
:LABEL1: Calculations in /home/cmueller/wien/FZU/src/FeRh/AFM/AFM-dud
:LABEL2: on cv036 at Wed Mar 12 12:17:10 PM CET 2025
:LABEL3: using WIEN2k_19.1 (Release 25/6/2019) in /home/cmueller/WIENROOT
:LABEL4: using the command: runsp_lapw
 Flat Integration
 New Mode for Coulomb Integral
 Consistent 3/8+Simpson combinations
 Extension of core to zero
 LDM version in phi
 Fifth-order quadrature in outwin


            ---------
:ITE001:  1. ITERATION
            ---------

:NATO :    3 INDEPENDENT AND    4 TOTAL ATOMS IN UNITCELL
       SUBSTANCE: FeRh                                                        

       LATTICE                      = F   
:POT  : POTENTIAL OPTION EX_PBE EC_PBE VX_PBE VC_PBE
:LAT  : LATTICE CONSTANTS= 11.27222 11.27222 11.27222    1.571    1.571    1.571
:VOL  : UNIT CELL VOLUME =     358.07036
       MODE OF CALCULATION IS       = RELA
       SPINPOLARIZED CALCULATION
:IFFT  : FFT-parameters:   90   90   90 Factor: 2.00


   CONVERGENCE PARAMETER FOR PSEUDOCHARGE: NCON=  9
   MAXIMAL VALUE OF RMT(JATOM)*ABSK(NKK) : RK  =29.05063


:VKCOUL :  VK-COUL convergence: 0.126E-05
       ATOMNUMBER=  1 Fe1        VCOUL-ZERO =  0.65836E+00
       ATOMNUMBER=  2 Fe2        VCOUL-ZERO =  0.65836E+00
       ATOMNUMBER=  3 Rh1        VCOUL-ZERO =  0.62973E+00
:FIT001: LUSE= 13 SIGMA OF V-XC FIT FOR ATOM  1  0.1106869E-02
:FIT001: LUSE= 13 SIGMA OF V-XC FIT FOR ATOM  1  0.6937203E-02
:FIT002: LUSE= 13 SIGMA OF V-XC FIT FOR ATOM  2  0.6749023E-02
:FIT002: LUSE= 13 SIGMA OF V-XC FIT FOR ATOM  2  0.9417152E-02
:FIT003: LUSE= 13 SIGMA OF V-XC FIT FOR ATOM  3  0.5379068E-02
:FIT003: LUSE= 13 SIGMA OF V-XC FIT FOR ATOM  3  0.1271548E-02
:DEN  : DENSITY INTEGRAL  =         -9889.64320125   (Ry)
       ELS_POTENTIAL_AT Z=0 and Z=0.5:  -0.23886  -0.23886
       ELS_POTENTIAL_AT Y=0 and Y=0.5:   0.00000   0.00000
:VZERO:v0,v0c,v0x  -0.97612  -0.23886  -0.73726 v5,v5c,v5x  -0.97612  -0.23886  -0.73726
:VZERY:v0,v0c,v0x  -0.80653   0.00000  -0.80653 v5,v5c,v5x  -0.80653   0.00000  -0.80653
:VZERX:v0,v0c,v0x  -0.80653   0.00000  -0.80653 v5,v5c,v5x  -0.80653   0.00000  -0.80653
:LMAX-WF:   10   Non-Spherical LMAX:   4

          ATOMIC SPHERE DEPENDENT PARAMETERS FOR ATOM  Fe1       
:e__0001: OVERALL ENERGY PARAMETER IS    0.3000
          OVERALL BASIS SET ON ATOM IS LAPW
:E1_0001: E( 1)=    0.3000
             APW+lo
:E1_0001: E( 1)=   -2.9764   E(BOTTOM)=   -3.010   E(TOP)=   -2.942  1  2   180
             LOCAL ORBITAL
:E2_0001: E( 2)=    0.5413   E(BOTTOM)=    0.541   E(TOP)= -200.000  0 -1    97
             APW+lo
:E0_0001: E( 0)=    0.3000
             APW+lo

          ATOMIC SPHERE DEPENDENT PARAMETERS FOR ATOM  Fe2       
:e__0002: OVERALL ENERGY PARAMETER IS    0.3000
          OVERALL BASIS SET ON ATOM IS LAPW
:E1_0002: E( 1)=    0.3000
             APW+lo
:E1_0002: E( 1)=   -3.1611   E(BOTTOM)=   -3.194   E(TOP)=   -3.129  1  2   175
             LOCAL ORBITAL
:E2_0002: E( 2)=    0.6231   E(BOTTOM)=    0.382   E(TOP)=    0.864  0  1   125
             APW+lo
:E0_0002: E( 0)=    0.3000
             APW+lo

          ATOMIC SPHERE DEPENDENT PARAMETERS FOR ATOM  Rh1       
:e__0003: OVERALL ENERGY PARAMETER IS    0.3000
          OVERALL BASIS SET ON ATOM IS LAPW
:E0_0003: E( 0)=    0.3000
             APW+lo
:E0_0003: E( 0)=   -4.8629   E(BOTTOM)=   -4.896   E(TOP)=   -4.830  3  4   179
             LOCAL ORBITAL
:E1_0003: E( 1)=    0.3000
             APW+lo
:E1_0003: E( 1)=   -2.5261   E(BOTTOM)=   -2.625   E(TOP)=   -2.427  2  3   166
             LOCAL ORBITAL
:E2_0003: E( 2)=    0.3000   E(BOTTOM)=    0.278   E(TOP)= -200.000  1 -1    87
             APW+lo

       K=   0.00000   0.00000   0.00000            1
:RKM  : MATRIX SIZE   187LOs:  50  RKM= 6.64  WEIGHT= 1.00  PGR:    
       EIGENVALUES ARE:
:EIG00001:      -4.8577520   -4.8554009   -3.1541148   -3.1541148   -3.1541148
:EIG00006:      -2.9693204   -2.9693204   -2.9693204   -2.5091969   -2.5091969
:EIG00011:      -2.5091969   -2.5013131   -2.5013131   -2.5013131    0.1840659
:EIG00016:       0.4465418    0.4465418    0.5263115    0.5263115    0.5263115
:EIG00021:       0.5952817    0.5952817    0.5952817    0.7136424    0.7136424
:EIG00026:       0.7136424    0.7541678    0.7541678    0.8893866    0.8893866
:EIG00031:       0.8932046    0.8932046    0.9239533    0.9239533    0.9239533
:EIG00036:       1.3547574    1.4399559    1.4399559    1.4399559    1.4567976
:EIG00041:       1.4567976    1.4567976    1.5680015    1.5680015    1.5680015
:EIG00046:       1.6198946
 
       ********************************************************

:KPT   :      NUMBER OF K-POINTS:    47
:LMAX-WF:   10   Non-Spherical LMAX:   4

          ATOMIC SPHERE DEPENDENT PARAMETERS FOR ATOM  Fe1       
:e__0001: OVERALL ENERGY PARAMETER IS    0.3000
          OVERALL BASIS SET ON ATOM IS LAPW
:E1_0001: E( 1)=    0.3000
             APW+lo
:E1_0001: E( 1)=   -3.1650   E(BOTTOM)=   -3.198   E(TOP)=   -3.132  1  2   156
             LOCAL ORBITAL
:E2_0001: E( 2)=    0.6153   E(BOTTOM)=    0.371   E(TOP)=    0.860  0  1   127
             APW+lo
:E0_0001: E( 0)=    0.3000
             APW+lo

          ATOMIC SPHERE DEPENDENT PARAMETERS FOR ATOM  Fe2       
:e__0002: OVERALL ENERGY PARAMETER IS    0.3000
          OVERALL BASIS SET ON ATOM IS LAPW
:E1_0002: E( 1)=    0.3000
             APW+lo
:E1_0002: E( 1)=   -2.9813   E(BOTTOM)=   -3.016   E(TOP)=   -2.947  1  2   199
             LOCAL ORBITAL
:E2_0002: E( 2)=    0.5239   E(BOTTOM)=    0.524   E(TOP)= -200.000  0 -1    97
             APW+lo
:E0_0002: E( 0)=    0.3000
             APW+lo

          ATOMIC SPHERE DEPENDENT PARAMETERS FOR ATOM  Rh1       
:e__0003: OVERALL ENERGY PARAMETER IS    0.3000
          OVERALL BASIS SET ON ATOM IS LAPW
:E0_0003: E( 0)=    0.3000
             APW+lo
:E0_0003: E( 0)=   -4.9560   E(BOTTOM)=   -4.990   E(TOP)=   -4.922  3  4   171
             LOCAL ORBITAL
:E1_0003: E( 1)=    0.3000
             APW+lo
:E1_0003: E( 1)=   -2.6255   E(BOTTOM)=   -2.726   E(TOP)=   -2.525  2  3   161
             LOCAL ORBITAL
:E2_0003: E( 2)=    0.3000   E(BOTTOM)=    0.164   E(TOP)= -200.000  1 -1    92
             APW+lo

       K=   0.00000   0.00000   0.00000            1
:RKM  : MATRIX SIZE   187LOs:  50  RKM= 6.64  WEIGHT= 1.00  PGR:    
       EIGENVALUES ARE:
:EIG00001:      -4.9507259   -4.9483112   -3.1580212   -3.1580212   -3.1580212
:EIG00006:      -2.9741859   -2.9741859   -2.9741859   -2.6084145   -2.6084145
:EIG00011:      -2.6084145   -2.6002306   -2.6002306   -2.6002306    0.0947199
:EIG00016:       0.3608892    0.3608892    0.4250646    0.4250646    0.4250646
:EIG00021:       0.5585342    0.5585342    0.5585342    0.6408048    0.6408048
:EIG00026:       0.6408048    0.7210715    0.7210715    0.7790294    0.7790294
:EIG00031:       0.8733698    0.8733698    0.8744630    0.8744630    0.8744630
:EIG00036:       1.3067216    1.3560570    1.3560570    1.3560570    1.3727980
:EIG00041:       1.3727980    1.3727980    1.4866726    1.4866726    1.4866726
:EIG00046:       1.5087413
 
       ********************************************************

:KPT   :      NUMBER OF K-POINTS:    47
:GAP (global)   :    0.0    Ry =     0.0   eV (metal)
:GAP (this spin):    0.0    Ry =     0.0   eV (metal)
         Bandranges (emin - emax) and occupancy:
:BAN00021:  21    0.546267    0.608223  1.00000000
:BAN00022:  22    0.572598    0.659357  1.00000000
:BAN00023:  23    0.574844    0.694578  1.00000000
:BAN00024:  24    0.628966    0.713642  1.00000000
:BAN00025:  25    0.636175    0.734466  1.00000000
:BAN00026:  26    0.636175    0.751553  1.00000000
:BAN00027:  27    0.728574    0.767097  1.00000000
:BAN00028:  28    0.746409    0.773827  1.00000000
:BAN00029:  29    0.761898    0.889387  0.94482842
:BAN00030:  30    0.782637    0.889387  0.86497314
:BAN00031:  31    0.804485    0.893205  0.41032331
:BAN00032:  32    0.851375    0.893205  0.00000000
:BAN00033:  33    0.865196    0.923953  0.00000000
:BAN00034:  34    0.879684    0.923953  0.00000000
:BAN00035:  35    0.899236    0.951061  0.00000000
:BAN00036:  36    0.933659    1.361058  0.00000000
        Energy to separate low and high energystates:    0.13407


:NOE  : NUMBER OF ELECTRONS          =   62.000

:FER  : F E R M I - ENERGY(TETRAH.M.)=   0.8290098859
:GMA  : POTENTIAL AND CHARGE CUT-OFF  12.00 Ry**.5

:POS001: ATOM    1 X,Y,Z = 0.00000 0.00000 0.00000  MULT= 1  ZZ= 26.000  Fe1       

       LMMAX  5
       LM=   0 0  4 0  4 4  6 0  6 4

:CHA001: TOTAL VALENCE CHARGE INSIDE SPHERE   1 =   5.2131    (RMT=  2.4300 )
:PCS001: PARTIAL CHARGES SPHERE =  1 S,P,D,F,      D-EG,D-T2G 
:QTL001: 0.2380 3.2587 1.6828 0.0252 0.0000 0.0000 0.0000 0.3724 1.3105 0.0000 0.0000 0.0000
        Q-s-low E-s-low   Q-p-low E-p-low   Q-d-low E-d-low   Q-f-low E-f-low
:EPL001:  0.0006 -2.6134    2.9948 -2.9691    0.0013 -2.6352    0.0006 -2.6510
        Q-s-hi  E-s-hi    Q-p-hi  E-p-hi    Q-d-hi  E-d-hi    Q-f-hi  E-f-hi 
:EPH001:  0.2374  0.4566    0.2639  0.6009    1.6815  0.6796    0.0246  0.6645

:POS002: ATOM    2 X,Y,Z = 0.50000 0.00000 0.00000  MULT= 1  ZZ= 26.000  Fe2       

       LMMAX  5
       LM=   0 0  4 0  4 4  6 0  6 4

:CHA002: TOTAL VALENCE CHARGE INSIDE SPHERE   2 =   7.8789    (RMT=  2.4300 )
:PCS002: PARTIAL CHARGES SPHERE =  2 S,P,D,F,      D-EG,D-T2G 
:QTL002: 0.2660 3.3018 4.2753 0.0269 0.0000 0.0000 0.0000 1.8070 2.4683 0.0000 0.0000 0.0000
        Q-s-low E-s-low   Q-p-low E-p-low   Q-d-low E-d-low   Q-f-low E-f-low
:EPL002:  0.0006 -2.6108    2.9953 -3.1538    0.0015 -2.6317    0.0006 -2.6491
        Q-s-hi  E-s-hi    Q-p-hi  E-p-hi    Q-d-hi  E-d-hi    Q-f-hi  E-f-hi 
:EPH002:  0.2654  0.4124    0.3065  0.5899    4.2738  0.6418    0.0263  0.6713

:POS003: ATOM    3 X,Y,Z = 0.25000 0.25000 0.25000  MULT= 2  ZZ= 45.000  Rh1       

       LMMAX  6
       LM=   0 0  4 0  4 4  6 0  6 4 -3 2

:CHA003: TOTAL VALENCE CHARGE INSIDE SPHERE   3 =   7.3459    (RMT=  2.4300 )
:PCS003: PARTIAL CHARGES SPHERE =  3 S,P,D,F,      D-EG,D-T2G 
:QTL003: 1.1788 3.1709 2.9702 0.0205 0.0000 0.0000 0.0000 1.0831 1.8871 0.0000 0.0000 0.0000
        Q-s-low E-s-low   Q-p-low E-p-low   Q-d-low E-d-low   Q-f-low E-f-low
:EPL003:  0.9987 -4.8562    2.9789 -2.5058    0.0004 -2.9893    0.0002 -2.9874
        Q-s-hi  E-s-hi    Q-p-hi  E-p-hi    Q-d-hi  E-d-hi    Q-f-hi  E-f-hi 
:EPH003:  0.1801  0.4434    0.1920  0.6069    2.9698  0.6395    0.0203  0.6623

:CHA  : TOTAL VALENCE CHARGE INSIDE UNIT CELL =      30.220125

:SUM  : SUM OF EIGENVALUES =         -33.071886590



   QTL-B VALUE .EQ.    3.50062   in Band of energy    0.87854   ATOM=    3   L=  2
    Most likely no ghostbands, but adjust Energy-parameters for this ATOM and L


:WARN : QTL-B value eq.   3.50 in Band of energy   0.87854  ATOM=    3  L=  2
:WARN : You should change the E-parameter for this atom and L-value in case.in1 (or try the -in1new switch)
:GAP (global)   :    0.0    Ry =     0.0   eV (metal)
:GAP (this spin):    0.0    Ry =     0.0   eV (metal)
         Bandranges (emin - emax) and occupancy:
:BAN00023:  23    0.501524    0.589142  1.00000000
:BAN00024:  24    0.542731    0.648547  1.00000000
:BAN00025:  25    0.544392    0.693266  1.00000000
:BAN00026:  26    0.548324    0.698310  1.00000000
:BAN00027:  27    0.662652    0.721071  1.00000000
:BAN00028:  28    0.698757    0.733408  1.00000000
:BAN00029:  29    0.707391    0.779029  1.00000000
:BAN00030:  30    0.731017    0.779029  1.00000000
:BAN00031:  31    0.737978    0.873370  0.98331697
:BAN00032:  32    0.769263    0.873370  0.79523897
:BAN00033:  33    0.823387    0.874463  0.00131918
:BAN00034:  34    0.839962    0.874463  0.00000000
:BAN00035:  35    0.853870    0.908238  0.00000000
:BAN00036:  36    0.888517    1.306722  0.00000000
:BAN00037:  37    0.891138    1.356057  0.00000000
:BAN00038:  38    0.901816    1.356057  0.00000000
        Energy to separate low and high energystates:    0.04472


:NOE  : NUMBER OF ELECTRONS          =   62.000

:FER  : F E R M I - ENERGY(TETRAH.M.)=   0.8290098859
:GMA  : POTENTIAL AND CHARGE CUT-OFF  12.00 Ry**.5

:POS001: ATOM    1 X,Y,Z = 0.00000 0.00000 0.00000  MULT= 1  ZZ= 26.000  Fe1       

       LMMAX  5
       LM=   0 0  4 0  4 4  6 0  6 4

:CHA001: TOTAL VALENCE CHARGE INSIDE SPHERE   1 =   7.9110    (RMT=  2.4300 )
:PCS001: PARTIAL CHARGES SPHERE =  1 S,P,D,F,      D-EG,D-T2G 
:QTL001: 0.2537 3.3009 4.3162 0.0293 0.0000 0.0000 0.0000 1.7663 2.5500 0.0000 0.0000 0.0000
        Q-s-low E-s-low   Q-p-low E-p-low   Q-d-low E-d-low   Q-f-low E-f-low
:EPL001:  0.0006 -2.7109    2.9951 -3.1577    0.0015 -2.7310    0.0006 -2.7479
        Q-s-hi  E-s-hi    Q-p-hi  E-p-hi    Q-d-hi  E-d-hi    Q-f-hi  E-f-hi 
:EPH001:  0.2531  0.3380    0.3058  0.5122    4.3148  0.6324    0.0286  0.5838

:POS002: ATOM    2 X,Y,Z = 0.50000 0.00000 0.00000  MULT= 1  ZZ= 26.000  Fe2       

       LMMAX  5
       LM=   0 0  4 0  4 4  6 0  6 4

:CHA002: TOTAL VALENCE CHARGE INSIDE SPHERE   2 =   5.1196    (RMT=  2.4300 )
:PCS002: PARTIAL CHARGES SPHERE =  2 S,P,D,F,      D-EG,D-T2G 
:QTL002: 0.2261 3.2647 1.5890 0.0292 0.0000 0.0000 0.0000 0.4087 1.1803 0.0000 0.0000 0.0000
        Q-s-low E-s-low   Q-p-low E-p-low   Q-d-low E-d-low   Q-f-low E-f-low
:EPL002:  0.0006 -2.7132    2.9945 -2.9739    0.0014 -2.7343    0.0006 -2.7496
        Q-s-hi  E-s-hi    Q-p-hi  E-p-hi    Q-d-hi  E-d-hi    Q-f-hi  E-f-hi 
:EPH002:  0.2256  0.3656    0.2702  0.5178    1.5876  0.6605    0.0286  0.5878

:POS003: ATOM    3 X,Y,Z = 0.25000 0.25000 0.25000  MULT= 2  ZZ= 45.000  Rh1       

       LMMAX  6
       LM=   0 0  4 0  4 4  6 0  6 4 -3 2

:CHA003: TOTAL VALENCE CHARGE INSIDE SPHERE   3 =   8.0754    (RMT=  2.4300 )
:PCS003: PARTIAL CHARGES SPHERE =  3 S,P,D,F,      D-EG,D-T2G 
:QTL003: 1.1973 3.1971 3.6511 0.0239 0.0000 0.0000 0.0000 1.4724 2.1787 0.0000 0.0000 0.0000
        Q-s-low E-s-low   Q-p-low E-p-low   Q-d-low E-d-low   Q-f-low E-f-low
:EPL003:  0.9987 -4.9491    2.9785 -2.6049    0.0004 -3.0073    0.0002 -3.0058
        Q-s-hi  E-s-hi    Q-p-hi  E-p-hi    Q-d-hi  E-d-hi    Q-f-hi  E-f-hi 
:EPH003:  0.1985  0.3752    0.2186  0.5488    3.6507  0.5697    0.0237  0.6282

:CHA  : TOTAL VALENCE CHARGE INSIDE UNIT CELL =      31.779875

:SUM  : SUM OF EIGENVALUES =         -33.812450308



   QTL-B VALUE .EQ.    4.73541   in Band of energy    0.85804   ATOM=    2   L=  2
    Most likely no ghostbands, but adjust Energy-parameters for this ATOM and L


:WARN : QTL-B value eq.   4.74 in Band of energy   0.85804  ATOM=    2  L=  2
:WARN : You should change the E-parameter for this atom and L-value in case.in1 (or try the -in1new switch)

        1.ATOM      Fe1                   5 CORE STATES
:1S 001: 1S                -512.917488182 Ry
:2S 001: 2S                 -58.785219245 Ry
:2PP001: 2P*                -50.499119603 Ry
:2P 001: 2P                 -49.580732129 Ry
:3S 001: 3S                  -5.454153664 Ry

        2.ATOM      Fe2                   5 CORE STATES
:1S 002: 1S                -512.918250765 Ry
:2S 002: 2S                 -58.866658579 Ry
:2PP002: 2P*                -50.559806270 Ry
:2P 002: 2P                 -49.643186094 Ry
:3S 002: 3S                  -5.642573226 Ry

        3.ATOM      Rh1                   9 CORE STATES
:1S 003: 1S               -1691.216786694 Ry
:2S 003: 2S                -244.099258760 Ry
:2PP003: 2P*               -225.911764630 Ry
:2P 003: 2P                -215.282029326 Ry
:3S 003: 3S                 -42.646172097 Ry
:3PP003: 3P*                -35.527023019 Ry
:3P 003: 3P                 -33.698942826 Ry
:3DD003: 3D*                -21.096864575 Ry
:3D 003: 3D                 -20.736378411 Ry

        1.ATOM      Fe1                   5 CORE STATES
:1S 001: 1S                -512.918293442 Ry
:2S 001: 2S                 -58.867069964 Ry
:2PP001: 2P*                -50.560139939 Ry
:2P 001: 2P                 -49.643527021 Ry
:3S 001: 3S                  -5.645702712 Ry

        2.ATOM      Fe2                   5 CORE STATES
:1S 002: 1S                -512.917530862 Ry
:2S 002: 2S                 -58.785652618 Ry
:2PP002: 2P*                -50.499469567 Ry
:2P 002: 2P                 -49.581089911 Ry
:3S 002: 3S                  -5.458061119 Ry

        3.ATOM      Rh1                   9 CORE STATES
:1S 003: 1S               -1691.217929689 Ry
:2S 003: 2S                -244.120058089 Ry
:2PP003: 2P*               -225.926902474 Ry
:2P 003: 2P                -215.298220211 Ry
:3S 003: 3S                 -42.657761096 Ry
:3PP003: 3P*                -35.540423361 Ry
:3P 003: 3P                 -33.711907338 Ry
:3DD003: 3D*                -21.116589291 Ry
:3D 003: 3D                 -20.756040431 Ry
:CINT001 Core Integral Atom   1 Up    5.999590 Dn   5.999607 Total  11.999197
:CINT002 Core Integral Atom   2 Up    5.999617 Dn   5.999577 Total  11.999194
:CINT003 Core Integral Atom   3 Up   14.000000 Dn  14.000000 Total  28.000000

       DENSITY AT NUCLEUS
        JATOM        VALENCE       SEMI-CORE          CORE           TOTAL
:RTO001:   1        7.304478        0.000000    15301.554035    15308.858514
:RTO002:   2        7.309074        0.000000    15301.542070    15308.851145
:RTO003:   3      537.614215        0.000000   154796.824083   155334.438298

       HYPERFINE FIELDS FOR THOMSON RADIUS
:HFF001:         -115.782           0.000         300.606         184.824 (KGAUSS)
:HFF002:          339.126           0.000        -246.705          92.420 (KGAUSS)
:HFF003:           36.942           0.000          73.597         110.539 (KGAUSS)
     
       CHARGES OF NEW CHARGE DENSITY
:NTO   : INTERSTITIAL     UP =     2.436421 DN =     2.598470 TOT =     5.034892
:NPC   : PW Pseudocharge  UP =     5.863078 DN =     6.222585 TOT =    12.085662
:NTO001: CHARGE SPHERE  1 UP =    11.212690 DN =    13.910581 TOT =    25.123272
:NTO002: CHARGE SPHERE  2 UP =    13.878474 DN =    11.119156 TOT =    24.997630
:NTO003: CHARGE SPHERE  3 UP =    21.345858 DN =    22.075409 TOT =    43.421267

:NEC01: NUCLEAR AND ELECTRONIC CHARGE    142.00000   141.99833
     
       CHARGES OF OLD CHARGE DENSITY
:OTO   : INTERSTITIAL     UP =     1.361899 DN =     2.442723 TOT =     3.804621
:OPC   : PW Pseudocharge  UP =     7.446093 DN =    11.411737 TOT =    18.857830
:OTO001: CHARGE SPHERE  1 UP =    11.190124 DN =    14.066772 TOT =    25.256897
:OTO002: CHARGE SPHERE  2 UP =    13.729050 DN =    11.527847 TOT =    25.256897
:OTO003: CHARGE SPHERE  3 UP =    20.860099 DN =    22.982475 TOT =    43.842573

:NEC02: NUCLEAR AND ELECTRONIC CHARGE    142.00000   142.00356
     
       CONVERGENCE TEST
:DTO001: DIFFERENCE SPHERE  1 UP =  0.4994604 DN =  0.1836929 TOT =  0.6831533
:DTO002: DIFFERENCE SPHERE  2 UP =  0.2105094 DN =  0.6053629 TOT =  0.8158723
:DTO003: DIFFERENCE SPHERE  3 UP =  0.2344577 DN =  0.7116030 TOT =  0.9460606

:DIS  :  CHARGE DISTANCE       ( 0.7116030 for atom    3 spin 2)      1.6955734
 PW Mixed is           49
 
******************************************************
* MULTISECANT MIXING VER9 RELEASE 10.4.0              *
* Standard Mode with controls                        *
* Fixed density scale                                *
* Regularization       1.000E-04                     *
* Trust Upper Limit    5.000E+00                     *
* Max Number of Memory Steps    8                    *
******************************************************
 
:PWTMP   1.1765E+02  4.5917E+02  3.5807E+02
:PLANE:  PW TOTAL      4.3766 DISTAN   2.66E+00  6.07E+01 %
:CHARG:  CLM/ATOM    212.0505 DISTAN   4.77E-01  2.25E-01 %
INFO: Reducing dbase  2.50000E-02 1.69557E+00 1.91991E-02
 
Step History
        DMIX         DMIXT        Red     Pred      Trust     Lambda    MagRel    MagAbs     Beta
  1   3.5000E-02   3.5000E-02 -1.00E+00  1.00E+00 -1.00E+01  1.00E+00  3.50E-02  3.50E-02  1.00E+00
:INFO :  Note, Pratt in use
INFO: Reducing dbase  1.91991E-02 1.69557E+00 1.47443E-02
:TRUST:  Step 2.51E-02  Charge 7.50E-02 (e) CTO  2.50E-01 (e) PW  3.50E-01 (e)
:DIRM :  MEMORY  0/ 8 SCALE   1.000
Performing Pseudo Compensation
Final Pseudo Compensation Rescaling     9.97253E-01
Final Pseudo Compensation Rescaling     9.98735E-01
:MIX  :   PRATT  REGULARIZATION:  1.00E-04 GREED: 0.01673                  
     
       CHARGES OF MIXED CHARGE DENSITY
:CTO   : INTERSTITIAL     UP =     1.378640 DN =     2.443095 TOT =     3.821734
:CPC   : PW Pseudocharge  UP =     5.807404 DN =     8.131482 TOT =    13.938887
:CTO001: CHARGE SPHERE  1 UP =    11.190502 DN =    14.064159 TOT =    25.254661
:CTO002: CHARGE SPHERE  2 UP =    13.731551 DN =    11.521008 TOT =    25.252558
:CTO003: CHARGE SPHERE  3 UP =    20.868227 DN =    22.967296 TOT =    43.835523

       SPIN MAGNETIC MOMENTS OF MIXED CHARGE DENSITY
:MMINT:  MAGNETIC MOMENT IN INTERSTITIAL  =   -1.06446
:MMI001: MAGNETIC MOMENT IN SPHERE   1    =   -2.87366
:MMI002: MAGNETIC MOMENT IN SPHERE   2    =    2.21054
:MMI003: MAGNETIC MOMENT IN SPHERE   3    =   -2.09907
:MMTOT:  SPIN MAGNETIC MOMENT IN CELL     =   -5.92571

:NEC03: NUCLEAR AND ELECTRONIC CHARGE    142.00000   142.00000

PW CHANGE     H    K    L      Current       Change    Residue
:PUP001:      0    0    0  2.00688042E-02 -4.507E-03 -1.389E-03
:PUP002:     -1   -1   -1 -7.32328328E-03  6.893E-03  1.037E-02
:PUP003:      0    0   -2 -8.35769379E-03  1.957E-03  2.919E-03
:PUP004:      0   -2   -2  2.13406944E-02 -3.443E-02 -5.333E-02
:PUP005:     -1   -1   -3  1.52695894E-03  1.030E-02  8.811E-03
:PUP006:     -2   -2   -2 -1.56803939E-03  8.519E-04  2.485E-03
:PUP007:      0    0   -4 -4.22811341E-03 -9.556E-03 -1.064E-02
:PUP008:     -1   -3   -3  2.77666517E-03  4.911E-03  6.213E-03
:PUP009:      0   -2   -4  3.88093711E-03 -4.899E-04 -2.216E-03
:PUP010:     -2   -2   -4 -1.87815329E-02 -1.805E-02 -6.633E-03
:PUP011:     -3   -3   -3  5.56066952E-04  7.049E-04  5.925E-04
:PUP012:     -1   -1   -5  1.65272873E-03  2.099E-03  8.528E-04
  
:PDN001:      0    0    0  2.95321203E-02 -9.124E-03 -1.401E-02
:PDN002:     -1   -1   -1  7.40621560E-03 -6.811E-03 -1.021E-02
:PDN003:      0    0   -2 -2.15916772E-02  1.580E-02  2.658E-02
:PDN004:      0   -2   -2  2.05967064E-02 -5.944E-02 -7.844E-02
:PDN005:     -1   -1   -3 -1.44199699E-03 -1.021E-02 -8.739E-03
:PDN006:     -2   -2   -2 -1.24535168E-04  1.081E-02  1.202E-02
:PDN007:      0    0   -4 -5.94687643E-03 -1.498E-02 -1.478E-02
:PDN008:     -1   -3   -3 -2.75605036E-03 -4.891E-03 -6.226E-03
:PDN009:      0   -2   -4  9.98675524E-03  1.479E-02  9.259E-03
:PDN010:     -2   -2   -4 -2.16434450E-02 -2.685E-02 -1.392E-02
:PDN011:     -3   -3   -3 -5.54076600E-04 -7.029E-04 -5.110E-04
:PDN012:     -1   -1   -5 -1.65353339E-03 -2.100E-03 -1.013E-03

:ENE  : *WARNING** TOTAL ENERGY IN Ry =       -24232.22068535

 Flat Integration
 New Mode for Coulomb Integral
 Consistent 3/8+Simpson combinations
 Extension of core to zero
 LDM version in phi
 Fifth-order quadrature in outwin


            ---------
:ITE002:  2. ITERATION
            ---------

:NATO :    3 INDEPENDENT AND    4 TOTAL ATOMS IN UNITCELL
       SUBSTANCE: FeRh                                                        

       LATTICE                      = F   
:POT  : POTENTIAL OPTION EX_PBE EC_PBE VX_PBE VC_PBE
:LAT  : LATTICE CONSTANTS= 11.27222 11.27222 11.27222    1.571    1.571    1.571
:VOL  : UNIT CELL VOLUME =     358.07036
       MODE OF CALCULATION IS       = RELA
       SPINPOLARIZED CALCULATION
:IFFT  : FFT-parameters:   90   90   90 Factor: 2.00


   CONVERGENCE PARAMETER FOR PSEUDOCHARGE: NCON=  9
   MAXIMAL VALUE OF RMT(JATOM)*ABSK(NKK) : RK  =29.05063


:VKCOUL :  VK-COUL convergence: 0.492E-07
       ATOMNUMBER=  1 Fe1        VCOUL-ZERO =  0.63097E+00
       ATOMNUMBER=  2 Fe2        VCOUL-ZERO =  0.63055E+00
       ATOMNUMBER=  3 Rh1        VCOUL-ZERO =  0.60196E+00
:FIT001: LUSE= 13 SIGMA OF V-XC FIT FOR ATOM  1  0.1324477E-02
:FIT001: LUSE= 13 SIGMA OF V-XC FIT FOR ATOM  1  0.6687703E-02
:FIT002: LUSE= 13 SIGMA OF V-XC FIT FOR ATOM  2  0.6443370E-02
:FIT002: LUSE= 13 SIGMA OF V-XC FIT FOR ATOM  2  0.9228021E-02
:FIT003: LUSE= 13 SIGMA OF V-XC FIT FOR ATOM  3  0.5134973E-02
:FIT003: LUSE= 13 SIGMA OF V-XC FIT FOR ATOM  3  0.1193803E-02
:DEN  : DENSITY INTEGRAL  =         -9884.15127892   (Ry)
       ELS_POTENTIAL_AT Z=0 and Z=0.5:  -0.21072  -0.21072
       ELS_POTENTIAL_AT Y=0 and Y=0.5:   0.00000   0.00000
:VZERO:v0,v0c,v0x  -0.84279  -0.21072  -0.63207 v5,v5c,v5x  -0.84279  -0.21072  -0.63207
:VZERY:v0,v0c,v0x  -0.77440   0.00000  -0.77440 v5,v5c,v5x  -0.77440   0.00000  -0.77440
:VZERX:v0,v0c,v0x  -0.77440   0.00000  -0.77440 v5,v5c,v5x  -0.77440   0.00000  -0.77440
:LMAX-WF:   10   Non-Spherical LMAX:   4

          ATOMIC SPHERE DEPENDENT PARAMETERS FOR ATOM  Fe1       
:e__0001: OVERALL ENERGY PARAMETER IS    0.5000
          OVERALL BASIS SET ON ATOM IS LAPW
:E1_0001: E( 1)=    0.5000
             APW+lo
:E1_0001: E( 1)=   -3.0124   E(BOTTOM)=   -3.046   E(TOP)=   -2.979  1  2   173
             LOCAL ORBITAL
:E2_0001: E( 2)=    0.5082   E(BOTTOM)=    0.508   E(TOP)= -200.000  0 -1    75
             APW+lo
:E0_0001: E( 0)=    0.5000
             APW+lo

          ATOMIC SPHERE DEPENDENT PARAMETERS FOR ATOM  Fe2       
:e__0002: OVERALL ENERGY PARAMETER IS    0.5000
          OVERALL BASIS SET ON ATOM IS LAPW
:E1_0002: E( 1)=    0.5000
             APW+lo
:E1_0002: E( 1)=   -3.1999   E(BOTTOM)=   -3.232   E(TOP)=   -3.168  1  2   172
             LOCAL ORBITAL
:E2_0002: E( 2)=    0.5864   E(BOTTOM)=    0.347   E(TOP)=    0.826  0  1   124
             APW+lo
:E0_0002: E( 0)=    0.5000
             APW+lo

          ATOMIC SPHERE DEPENDENT PARAMETERS FOR ATOM  Rh1       
:e__0003: OVERALL ENERGY PARAMETER IS    0.5000
          OVERALL BASIS SET ON ATOM IS LAPW
:E0_0003: E( 0)=    0.5000
             APW+lo
:E0_0003: E( 0)=   -4.8998   E(BOTTOM)=   -4.933   E(TOP)=   -4.867  3  4   183
             LOCAL ORBITAL
:E1_0003: E( 1)=    0.5000
             APW+lo
:E1_0003: E( 1)=   -2.5622   E(BOTTOM)=   -2.661   E(TOP)=   -2.463  2  3   169
             LOCAL ORBITAL
:E2_0003: E( 2)=    0.5000   E(BOTTOM)=    0.245   E(TOP)= -200.000  1 -1    85
             APW+lo

       K=   0.00000   0.00000   0.00000            1
:RKM  : MATRIX SIZE   187LOs:  50  RKM= 6.64  WEIGHT= 1.00  PGR:    
       EIGENVALUES ARE:
:EIG00001:      -4.8945938   -4.8922613   -3.1929384   -3.1929384   -3.1929384
:EIG00006:      -3.0051966   -3.0051966   -3.0051966   -2.5452604   -2.5452604
:EIG00011:      -2.5452604   -2.5374502   -2.5374502   -2.5374502    0.1586353
:EIG00016:       0.4157068    0.4157068    0.4964988    0.4964988    0.4964988
:EIG00021:       0.5609274    0.5609274    0.5609274    0.6811193    0.6811193
:EIG00026:       0.6811193    0.7176319    0.7176319    0.8531892    0.8531892
:EIG00031:       0.8589635    0.8589635    0.8877882    0.8877882    0.8877882
:EIG00036:       1.3259699    1.4125118    1.4125118    1.4125118    1.4276704
:EIG00041:       1.4276704    1.4276704    1.5285061    1.5285061    1.5285061
:EIG00046:       1.5907564    2.1088904    2.1088904    2.1543710
 
       ********************************************************

:KPT   :      NUMBER OF K-POINTS:    47
:LMAX-WF:   10   Non-Spherical LMAX:   4

          ATOMIC SPHERE DEPENDENT PARAMETERS FOR ATOM  Fe1       
:e__0001: OVERALL ENERGY PARAMETER IS    0.5000
          OVERALL BASIS SET ON ATOM IS LAPW
:E1_0001: E( 1)=    0.5000
             APW+lo
:E1_0001: E( 1)=   -3.2012   E(BOTTOM)=   -3.234   E(TOP)=   -3.168  1  2   160
             LOCAL ORBITAL
:E2_0001: E( 2)=    0.5809   E(BOTTOM)=    0.338   E(TOP)=    0.824  0  1   124
             APW+lo
:E0_0001: E( 0)=    0.5000
             APW+lo

          ATOMIC SPHERE DEPENDENT PARAMETERS FOR ATOM  Fe2       
:e__0002: OVERALL ENERGY PARAMETER IS    0.5000
          OVERALL BASIS SET ON ATOM IS LAPW
:E1_0002: E( 1)=    0.5000
             APW+lo
:E1_0002: E( 1)=   -3.0195   E(BOTTOM)=   -3.054   E(TOP)=   -2.985  1  2   196
             LOCAL ORBITAL
:E2_0002: E( 2)=    0.5000   E(BOTTOM)=    0.490   E(TOP)= -200.000  0 -1    77
             APW+lo
:E0_0002: E( 0)=    0.5000
             APW+lo

          ATOMIC SPHERE DEPENDENT PARAMETERS FOR ATOM  Rh1       
:e__0003: OVERALL ENERGY PARAMETER IS    0.5000
          OVERALL BASIS SET ON ATOM IS LAPW
:E0_0003: E( 0)=    0.5000
             APW+lo
:E0_0003: E( 0)=   -4.9919   E(BOTTOM)=   -5.026   E(TOP)=   -4.958  3  4   169
             LOCAL ORBITAL
:E1_0003: E( 1)=    0.5000
             APW+lo
:E1_0003: E( 1)=   -2.6606   E(BOTTOM)=   -2.761   E(TOP)=   -2.560  2  3   159
             LOCAL ORBITAL
:E2_0003: E( 2)=    0.5000   E(BOTTOM)=    0.133   E(TOP)= -200.000  1 -1    91
             APW+lo

       K=   0.00000   0.00000   0.00000            1
:RKM  : MATRIX SIZE   187LOs:  50  RKM= 6.64  WEIGHT= 1.00  PGR:    
       EIGENVALUES ARE:
:EIG00001:      -4.9866735   -4.9842717   -3.1943032   -3.1943032   -3.1943032
:EIG00006:      -3.0123651   -3.0123651   -3.0123651   -2.6435967   -2.6435967
:EIG00011:      -2.6435967   -2.6354591   -2.6354591   -2.6354591    0.0641908
:EIG00016:       0.3286780    0.3286780    0.3929705    0.3929705    0.3929705
:EIG00021:       0.5249712    0.5249712    0.5249712    0.6069814    0.6069814
:EIG00026:       0.6069814    0.6860844    0.6860844    0.7443851    0.7443851
:EIG00031:       0.8371005    0.8371005    0.8383918    0.8383918    0.8383918
:EIG00036:       1.2750276    1.3244522    1.3244522    1.3244522    1.3391392
:EIG00041:       1.3391392    1.3391392    1.4452643    1.4452643    1.4452643
:EIG00046:       1.4769467    2.0183551    2.0183551    2.0792193    2.1389156
 
:EIG00051:       2.1389156    2.1389156
       ********************************************************

:KPT   :      NUMBER OF K-POINTS:    47
:GAP (global)   :    0.0    Ry =     0.0   eV (metal)
:GAP (this spin):    0.0    Ry =     0.0   eV (metal)
         Bandranges (emin - emax) and occupancy:
:BAN00021:  21    0.514403    0.574965  1.00000000
:BAN00022:  22    0.542173    0.626371  1.00000000
:BAN00023:  23    0.544763    0.662014  1.00000000
:BAN00024:  24    0.597269    0.681119  1.00000000
:BAN00025:  25    0.604521    0.699301  1.00000000
:BAN00026:  26    0.604521    0.716359  1.00000000
:BAN00027:  27    0.693595    0.731436  1.00000000
:BAN00028:  28    0.715310    0.739612  1.00000000
:BAN00029:  29    0.727730    0.853189  0.94398419
:BAN00030:  30    0.749481    0.853189  0.86108650
:BAN00031:  31    0.770621    0.858963  0.40370566
:BAN00032:  32    0.817259    0.858963  0.00000000
:BAN00033:  33    0.830601    0.887788  0.00000000
:BAN00034:  34    0.843650    0.887788  0.00000000
:BAN00035:  35    0.864745    0.914768  0.00000000
:BAN00036:  36    0.898871    1.330132  0.00000000
        Energy to separate low and high energystates:    0.10864


:NOE  : NUMBER OF ELECTRONS          =   62.000

:FER  : F E R M I - ENERGY(TETRAH.M.)=   0.7938062326
:GMA  : POTENTIAL AND CHARGE CUT-OFF  12.00 Ry**.5

:POS001: ATOM    1 X,Y,Z = 0.00000 0.00000 0.00000  MULT= 1  ZZ= 26.000  Fe1       

       LMMAX  5
       LM=   0 0  4 0  4 4  6 0  6 4

:CHA001: TOTAL VALENCE CHARGE INSIDE SPHERE   1 =   5.2003    (RMT=  2.4300 )
:PCS001: PARTIAL CHARGES SPHERE =  1 S,P,D,F,      D-EG,D-T2G 
:QTL001: 0.2365 3.2529 1.6779 0.0246 0.0000 0.0000 0.0000 0.3727 1.3053 0.0000 0.0000 0.0000
        Q-s-low E-s-low   Q-p-low E-p-low   Q-d-low E-d-low   Q-f-low E-f-low
:EPL001:  0.0006 -2.6503    2.9948 -3.0049    0.0013 -2.6717    0.0006 -2.6880
        Q-s-hi  E-s-hi    Q-p-hi  E-p-hi    Q-d-hi  E-d-hi    Q-f-hi  E-f-hi 
:EPH001:  0.2359  0.4297    0.2581  0.5707    1.6766  0.6476    0.0240  0.6315

:POS002: ATOM    2 X,Y,Z = 0.50000 0.00000 0.00000  MULT= 1  ZZ= 26.000  Fe2       

       LMMAX  5
       LM=   0 0  4 0  4 4  6 0  6 4

:CHA002: TOTAL VALENCE CHARGE INSIDE SPHERE   2 =   7.8910    (RMT=  2.4300 )
:PCS002: PARTIAL CHARGES SPHERE =  2 S,P,D,F,      D-EG,D-T2G 
:QTL002: 0.2660 3.2980 4.2917 0.0265 0.0000 0.0000 0.0000 1.8121 2.4796 0.0000 0.0000 0.0000
        Q-s-low E-s-low   Q-p-low E-p-low   Q-d-low E-d-low   Q-f-low E-f-low
:EPL002:  0.0006 -2.6476    2.9954 -3.1927    0.0014 -2.6681    0.0006 -2.6860
        Q-s-hi  E-s-hi    Q-p-hi  E-p-hi    Q-d-hi  E-d-hi    Q-f-hi  E-f-hi 
:EPH002:  0.2654  0.3848    0.3026  0.5601    4.2903  0.6059    0.0259  0.6389

:POS003: ATOM    3 X,Y,Z = 0.25000 0.25000 0.25000  MULT= 2  ZZ= 45.000  Rh1       

       LMMAX  6
       LM=   0 0  4 0  4 4  6 0  6 4 -3 2

:CHA003: TOTAL VALENCE CHARGE INSIDE SPHERE   3 =   7.3575    (RMT=  2.4300 )
:PCS003: PARTIAL CHARGES SPHERE =  3 S,P,D,F,      D-EG,D-T2G 
:QTL003: 1.1779 3.1673 2.9868 0.0200 0.0000 0.0000 0.0000 1.0929 1.8939 0.0000 0.0000 0.0000
        Q-s-low E-s-low   Q-p-low E-p-low   Q-d-low E-d-low   Q-f-low E-f-low
:EPL003:  0.9987 -4.8930    2.9791 -2.5419    0.0004 -3.0267    0.0002 -3.0253
        Q-s-hi  E-s-hi    Q-p-hi  E-p-hi    Q-d-hi  E-d-hi    Q-f-hi  E-f-hi 
:EPH003:  0.1792  0.4156    0.1883  0.5766    2.9864  0.6077    0.0198  0.6286

:CHA  : TOTAL VALENCE CHARGE INSIDE UNIT CELL =      30.208776

:SUM  : SUM OF EIGENVALUES =         -34.114894833



   QTL-B VALUE .EQ.    2.63783   in Band of energy    0.82196   ATOM=    1   L=  2
    Most likely no ghostbands, but adjust Energy-parameters for this ATOM and L


:WARN : QTL-B value eq.   2.64 in Band of energy   0.82196  ATOM=    1  L=  2
:WARN : You should change the E-parameter for this atom and L-value in case.in1 (or try the -in1new switch)
:GAP (global)   :    0.0    Ry =     0.0   eV (metal)
:GAP (this spin):    0.0    Ry =     0.0   eV (metal)
         Bandranges (emin - emax) and occupancy:
:BAN00023:  23    0.468464    0.556121  1.00000000
:BAN00024:  24    0.509693    0.614714  1.00000000
:BAN00025:  25    0.511402    0.659540  1.00000000
:BAN00026:  26    0.515510    0.663604  1.00000000
:BAN00027:  27    0.628203    0.686084  1.00000000
:BAN00028:  28    0.664215    0.698401  1.00000000
:BAN00029:  29    0.672682    0.744385  1.00000000
:BAN00030:  30    0.696879    0.744385  1.00000000
:BAN00031:  31    0.704220    0.837100  0.98349043
:BAN00032:  32    0.734725    0.837100  0.80476082
:BAN00033:  33    0.787458    0.838392  0.00297241
:BAN00034:  34    0.804011    0.838392  0.00000000
:BAN00035:  35    0.819494    0.871536  0.00000000
:BAN00036:  36    0.852362    1.275028  0.00000000
:BAN00037:  37    0.855381    1.324452  0.00000000
:BAN00038:  38    0.865126    1.324452  0.00000000
        Energy to separate low and high energystates:    0.01419


:NOE  : NUMBER OF ELECTRONS          =   62.000

:FER  : F E R M I - ENERGY(TETRAH.M.)=   0.7938062326
:GMA  : POTENTIAL AND CHARGE CUT-OFF  12.00 Ry**.5

:POS001: ATOM    1 X,Y,Z = 0.00000 0.00000 0.00000  MULT= 1  ZZ= 26.000  Fe1       

       LMMAX  5
       LM=   0 0  4 0  4 4  6 0  6 4

:CHA001: TOTAL VALENCE CHARGE INSIDE SPHERE   1 =   7.9117    (RMT=  2.4300 )
:PCS001: PARTIAL CHARGES SPHERE =  1 S,P,D,F,      D-EG,D-T2G 
:QTL001: 0.2534 3.2993 4.3192 0.0291 0.0000 0.0000 0.0000 1.7676 2.5516 0.0000 0.0000 0.0000
        Q-s-low E-s-low   Q-p-low E-p-low   Q-d-low E-d-low   Q-f-low E-f-low
:EPL001:  0.0006 -2.7466    2.9951 -3.1940    0.0015 -2.7664    0.0006 -2.7838
        Q-s-hi  E-s-hi    Q-p-hi  E-p-hi    Q-d-hi  E-d-hi    Q-f-hi  E-f-hi 
:EPH001:  0.2528  0.3066    0.3041  0.4798    4.3177  0.5977    0.0284  0.5507

:POS002: ATOM    2 X,Y,Z = 0.50000 0.00000 0.00000  MULT= 1  ZZ= 26.000  Fe2       

       LMMAX  5
       LM=   0 0  4 0  4 4  6 0  6 4

:CHA002: TOTAL VALENCE CHARGE INSIDE SPHERE   2 =   5.1392    (RMT=  2.4300 )
:PCS002: PARTIAL CHARGES SPHERE =  2 S,P,D,F,      D-EG,D-T2G 
:QTL002: 0.2257 3.2630 1.6109 0.0290 0.0000 0.0000 0.0000 0.4164 1.1946 0.0000 0.0000 0.0000
        Q-s-low E-s-low   Q-p-low E-p-low   Q-d-low E-d-low   Q-f-low E-f-low
:EPL002:  0.0006 -2.7490    2.9945 -3.0121    0.0014 -2.7697    0.0006 -2.7855
        Q-s-hi  E-s-hi    Q-p-hi  E-p-hi    Q-d-hi  E-d-hi    Q-f-hi  E-f-hi 
:EPH002:  0.2251  0.3342    0.2685  0.4854    1.6096  0.6275    0.0284  0.5545

:POS003: ATOM    3 X,Y,Z = 0.25000 0.25000 0.25000  MULT= 2  ZZ= 45.000  Rh1       

       LMMAX  6
       LM=   0 0  4 0  4 4  6 0  6 4 -3 2

:CHA003: TOTAL VALENCE CHARGE INSIDE SPHERE   3 =   8.0773    (RMT=  2.4300 )
:PCS003: PARTIAL CHARGES SPHERE =  3 S,P,D,F,      D-EG,D-T2G 
:QTL003: 1.1967 3.1956 3.6553 0.0238 0.0000 0.0000 0.0000 1.4755 2.1798 0.0000 0.0000 0.0000
        Q-s-low E-s-low   Q-p-low E-p-low   Q-d-low E-d-low   Q-f-low E-f-low
:EPL003:  0.9987 -4.9851    2.9786 -2.6401    0.0004 -3.0445    0.0002 -3.0436
        Q-s-hi  E-s-hi    Q-p-hi  E-p-hi    Q-d-hi  E-d-hi    Q-f-hi  E-f-hi 
:EPH003:  0.1980  0.3434    0.2170  0.5160    3.6548  0.5367    0.0236  0.5944

:CHA  : TOTAL VALENCE CHARGE INSIDE UNIT CELL =      31.791224

:SUM  : SUM OF EIGENVALUES =         -34.900338503



   QTL-B VALUE .EQ.    4.50250   in Band of energy    0.82208   ATOM=    2   L=  2
    Most likely no ghostbands, but adjust Energy-parameters for this ATOM and L


:WARN : QTL-B value eq.   4.50 in Band of energy   0.82208  ATOM=    2  L=  2
:WARN : You should change the E-parameter for this atom and L-value in case.in1 (or try the -in1new switch)

        1.ATOM      Fe1                   5 CORE STATES
:1S 001: 1S                -512.959882320 Ry
:2S 001: 2S                 -58.827007354 Ry
:2PP001: 2P*                -50.541079269 Ry
:2P 001: 2P                 -49.622674852 Ry
:3S 001: 3S                  -5.490530271 Ry

        2.ATOM      Fe2                   5 CORE STATES
:1S 002: 1S                -512.964189055 Ry
:2S 002: 2S                 -58.912106132 Ry
:2PP002: 2P*                -50.605399083 Ry
:2P 002: 2P                 -49.688763912 Ry
:3S 002: 3S                  -5.681968364 Ry

        3.ATOM      Rh1                   9 CORE STATES
:1S 003: 1S               -1691.259753217 Ry
:2S 003: 2S                -244.141852822 Ry
:2PP003: 2P*               -225.954467280 Ry
:2P 003: 2P                -215.324706759 Ry
:3S 003: 3S                 -42.686676565 Ry
:3PP003: 3P*                -35.567592191 Ry
:3P 003: 3P                 -33.739435724 Ry
:3DD003: 3D*                -21.137611458 Ry
:3D 003: 3D                 -20.777099159 Ry

        1.ATOM      Fe1                   5 CORE STATES
:1S 001: 1S                -512.960669334 Ry
:2S 001: 2S                 -58.909028303 Ry
:2PP001: 2P*                -50.602223234 Ry
:2P 001: 2P                 -49.685597369 Ry
:3S 001: 3S                  -5.682461662 Ry

        2.ATOM      Fe2                   5 CORE STATES
:1S 002: 1S                -512.963477595 Ry
:2S 002: 2S                 -58.830860892 Ry
:2PP002: 2P*                -50.544883248 Ry
:2P 002: 2P                 -49.626483348 Ry
:3S 002: 3S                  -5.496813464 Ry

        3.ATOM      Rh1                   9 CORE STATES
:1S 003: 1S               -1691.260874337 Ry
:2S 003: 2S                -244.162444746 Ry
:2PP003: 2P*               -225.969451644 Ry
:2P 003: 2P                -215.340734153 Ry
:3S 003: 3S                 -42.698137561 Ry
:3PP003: 3P*                -35.580847074 Ry
:3P 003: 3P                 -33.752258516 Ry
:3DD003: 3D*                -21.157130813 Ry
:3D 003: 3D                 -20.796556235 Ry
:CINT001 Core Integral Atom   1 Up    5.999592 Dn   5.999610 Total  11.999202
:CINT002 Core Integral Atom   2 Up    5.999619 Dn   5.999580 Total  11.999199
:CINT003 Core Integral Atom   3 Up   14.000000 Dn  14.000000 Total  28.000000

       DENSITY AT NUCLEUS
        JATOM        VALENCE       SEMI-CORE          CORE           TOTAL
:RTO001:   1        7.271413        0.000000    15301.673637    15308.945050
:RTO002:   2        7.299051        0.000000    15301.684282    15308.983333
:RTO003:   3      537.699114        0.000000   154796.970602   155334.669716

       HYPERFINE FIELDS FOR THOMSON RADIUS
:HFF001:         -116.369           0.000         301.017         184.648 (KGAUSS)
:HFF002:          345.790           0.000        -248.320          97.470 (KGAUSS)
:HFF003:           33.426           0.000          73.025         106.451 (KGAUSS)
     
       CHARGES OF NEW CHARGE DENSITY
:NTO   : INTERSTITIAL     UP =     2.402392 DN =     2.585697 TOT =     4.988089
:NPC   : PW Pseudocharge  UP =     5.832802 DN =     6.198596 TOT =    12.031398
:NTO001: CHARGE SPHERE  1 UP =    11.199882 DN =    13.911265 TOT =    25.111147
:NTO002: CHARGE SPHERE  2 UP =    13.890590 DN =    11.138803 TOT =    25.029393
:NTO003: CHARGE SPHERE  3 UP =    21.357546 DN =    22.077307 TOT =    43.434854

:NEC01: NUCLEAR AND ELECTRONIC CHARGE    142.00000   141.99834
     
       CHARGES OF OLD CHARGE DENSITY
:OTO   : INTERSTITIAL     UP =     1.378640 DN =     2.443095 TOT =     3.821734
:OPC   : PW Pseudocharge  UP =     5.807404 DN =     8.131482 TOT =    13.938887
:OTO001: CHARGE SPHERE  1 UP =    11.190502 DN =    14.064159 TOT =    25.254661
:OTO002: CHARGE SPHERE  2 UP =    13.731551 DN =    11.521008 TOT =    25.252558
:OTO003: CHARGE SPHERE  3 UP =    20.868227 DN =    22.967296 TOT =    43.835523

:NEC02: NUCLEAR AND ELECTRONIC CHARGE    142.00000   142.00000
     
       CONVERGENCE TEST
:DTO001: DIFFERENCE SPHERE  1 UP =  0.4852165 DN =  0.1678601 TOT =  0.6530766
:DTO002: DIFFERENCE SPHERE  2 UP =  0.1790401 DN =  0.5654892 TOT =  0.7445294
:DTO003: DIFFERENCE SPHERE  3 UP =  0.2330768 DN =  0.6785561 TOT =  0.9116329

:DIS  :  CHARGE DISTANCE       ( 0.6785561 for atom    3 spin 2)      1.6104359
 PW Mixed is           49
 
******************************************************
* MULTISECANT MIXING VER9 RELEASE 10.4.0              *
* Slow Mode, cautious                                *
* Fixed density scale                                *
* Regularization       1.000E-04                     *
* Step Trust Radius    0.75000                       *
* Trust Upper Limit    2.000E+00                     *
* Max Number of Memory Steps   12                    *
******************************************************
 
:PWTMP   1.1765E+02  4.5917E+02  3.5807E+02
:PLANE:  PW TOTAL      2.9866 DISTAN   8.97E-01  3.00E+01 %
:CHARG:  CLM/ATOM    212.0496 DISTAN   4.56E-01  2.15E-01 %
INFO: Reducing dbase  1.00000E-02 1.61044E+00 7.88004E-03
 
Step History
        DMIX         DMIXT        Red     Pred      Trust     Lambda    MagRel    MagAbs     Beta
  1   3.5000E-02   3.5000E-02 -1.00E+00  1.00E+00 -1.00E+01  1.00E+00  3.50E-02  3.50E-02  1.00E+00
  2   1.6734E-02   1.6734E-02 -1.00E+00  1.00E+00 -1.00E+01  1.00E+00  1.67E-02  3.27E-02  1.00E+00
:JACOBIANS    4.955E-01   2.252E-04
  
:TRUST:  Step 2.27E-02  Charge 7.50E-02 (e) CTO  2.50E-01 (e) PW  3.50E-01 (e)
:DIRM :  MEMORY  1/12 SCALE   1.000
:MIX  :   PRATT  REGULARIZATION:  1.00E-04 GREED: 0.02268  Expand 1.36  0.0227                
     
       CHARGES OF MIXED CHARGE DENSITY
:CTO   : INTERSTITIAL     UP =     1.384968 DN =     2.444029 TOT =     3.828997
:CPC   : PW Pseudocharge  UP =     5.234239 DN =     6.982995 TOT =    12.217234
:CTO001: CHARGE SPHERE  1 UP =    11.190635 DN =    14.063241 TOT =    25.253875
:CTO002: CHARGE SPHERE  2 UP =    13.732429 DN =    11.518605 TOT =    25.251034
:CTO003: CHARGE SPHERE  3 UP =    20.871083 DN =    22.961964 TOT =    43.833047

       SPIN MAGNETIC MOMENTS OF MIXED CHARGE DENSITY
:MMINT:  MAGNETIC MOMENT IN INTERSTITIAL  =   -1.05906
:MMI001: MAGNETIC MOMENT IN SPHERE   1    =   -2.87261
:MMI002: MAGNETIC MOMENT IN SPHERE   2    =    2.21382
:MMI003: MAGNETIC MOMENT IN SPHERE   3    =   -2.09088
:MMTOT:  SPIN MAGNETIC MOMENT IN CELL     =   -5.89961

:NEC03: NUCLEAR AND ELECTRONIC CHARGE    142.00000   142.00000

PW CHANGE     H    K    L      Current       Change    Residue
:PUP001:      0    0    0  1.84857706E-02 -1.583E-03  2.938E-03
:PUP002:     -1   -1   -1 -4.90184054E-03  2.421E-03  3.452E-03
:PUP003:      0    0   -2 -7.67039016E-03  6.873E-04  9.475E-04
:PUP004:      0   -2   -2  9.24665789E-03 -1.209E-02 -1.842E-02
:PUP005:     -1   -1   -3  5.14471099E-03  3.618E-03 -1.317E-03
:PUP006:     -2   -2   -2 -1.26878314E-03  2.993E-04  1.668E-03
:PUP007:      0    0   -4 -7.58483566E-03 -3.357E-03 -1.001E-03
:PUP008:     -1   -3   -3  4.50179050E-03  1.725E-03  1.333E-03
:PUP009:      0   -2   -4  3.70885593E-03 -1.721E-04 -1.673E-03
:PUP010:     -2   -2   -4 -2.51230397E-02 -6.342E-03  1.139E-02
:PUP011:     -3   -3   -3  8.03666353E-04  2.476E-04 -1.263E-04
:PUP012:     -1   -1   -5  2.39009212E-03  7.374E-04 -1.237E-03
  
:PDN001:      0    0    0  2.63272955E-02 -3.205E-03 -4.992E-03
:PDN002:     -1   -1   -1  5.01370061E-03 -2.393E-03 -3.455E-03
:PDN003:      0    0   -2 -1.60426268E-02  5.549E-03  1.082E-02
:PDN004:      0   -2   -2 -2.83563963E-04 -2.088E-02 -1.897E-02
:PDN005:     -1   -1   -3 -5.03003043E-03 -3.588E-03  1.446E-03
:PDN006:     -2   -2   -2  3.67335554E-03  3.798E-03  1.169E-03
:PDN007:      0    0   -4 -1.12093000E-02 -5.262E-03  2.045E-04
:PDN008:     -1   -3   -3 -4.47396498E-03 -1.718E-03 -1.310E-03
:PDN009:      0   -2   -4  1.51834721E-02  5.197E-03 -5.568E-03
:PDN010:     -2   -2   -4 -3.10763613E-02 -9.433E-03  1.293E-02
:PDN011:     -3   -3   -3 -8.00978990E-04 -2.469E-04  1.987E-04
:PDN012:     -1   -1   -5 -2.39118582E-03 -7.377E-04  1.101E-03

:ENE  : *WARNING** TOTAL ENERGY IN Ry =       -24232.19976773

 Flat Integration
 New Mode for Coulomb Integral
 Consistent 3/8+Simpson combinations
 Extension of core to zero
 LDM version in phi
 Fifth-order quadrature in outwin


            ---------
:ITE003:  3. ITERATION
            ---------

:NATO :    3 INDEPENDENT AND    4 TOTAL ATOMS IN UNITCELL
       SUBSTANCE: FeRh                                                        

       LATTICE                      = F   
:POT  : POTENTIAL OPTION EX_PBE EC_PBE VX_PBE VC_PBE
:LAT  : LATTICE CONSTANTS= 11.27222 11.27222 11.27222    1.571    1.571    1.571
:VOL  : UNIT CELL VOLUME =     358.07036
       MODE OF CALCULATION IS       = RELA
       SPINPOLARIZED CALCULATION
:IFFT  : FFT-parameters:   90   90   90 Factor: 2.00


   CONVERGENCE PARAMETER FOR PSEUDOCHARGE: NCON=  9
   MAXIMAL VALUE OF RMT(JATOM)*ABSK(NKK) : RK  =29.05063


:VKCOUL :  VK-COUL convergence: 0.555E-07
       ATOMNUMBER=  1 Fe1        VCOUL-ZERO =  0.62143E+00
       ATOMNUMBER=  2 Fe2        VCOUL-ZERO =  0.62086E+00
       ATOMNUMBER=  3 Rh1        VCOUL-ZERO =  0.59229E+00
:FIT001: LUSE= 13 SIGMA OF V-XC FIT FOR ATOM  1  0.1414555E-02
:FIT001: LUSE= 13 SIGMA OF V-XC FIT FOR ATOM  1  0.6601644E-02
:FIT002: LUSE= 13 SIGMA OF V-XC FIT FOR ATOM  2  0.6339171E-02
:FIT002: LUSE= 13 SIGMA OF V-XC FIT FOR ATOM  2  0.9162945E-02
:FIT003: LUSE= 13 SIGMA OF V-XC FIT FOR ATOM  3  0.5051616E-02
:FIT003: LUSE= 13 SIGMA OF V-XC FIT FOR ATOM  3  0.1167262E-02
:DEN  : DENSITY INTEGRAL  =         -9882.23575698   (Ry)
       ELS_POTENTIAL_AT Z=0 and Z=0.5:  -0.20129  -0.20129
       ELS_POTENTIAL_AT Y=0 and Y=0.5:   0.00000   0.00000
:VZERO:v0,v0c,v0x  -0.72756  -0.20129  -0.52628 v5,v5c,v5x  -0.72756  -0.20129  -0.52628
:VZERY:v0,v0c,v0x  -0.74883   0.00000  -0.74883 v5,v5c,v5x  -0.74883   0.00000  -0.74883
:VZERX:v0,v0c,v0x  -0.74883   0.00000  -0.74883 v5,v5c,v5x  -0.74883   0.00000  -0.74883
:LMAX-WF:   10   Non-Spherical LMAX:   4

          ATOMIC SPHERE DEPENDENT PARAMETERS FOR ATOM  Fe1       
:e__0001: OVERALL ENERGY PARAMETER IS    0.5625
          OVERALL BASIS SET ON ATOM IS LAPW
:E1_0001: E( 1)=    0.5625
             APW+lo
:E1_0001: E( 1)=   -3.0249   E(BOTTOM)=   -3.059   E(TOP)=   -2.991  1  2   171
             LOCAL ORBITAL
:E2_0001: E( 2)=    0.7488   E(BOTTOM)=    0.497   E(TOP)=    1.001  0  1   126
             APW+lo
:E0_0001: E( 0)=    0.5625
             APW+lo

          ATOMIC SPHERE DEPENDENT PARAMETERS FOR ATOM  Fe2       
:e__0002: OVERALL ENERGY PARAMETER IS    0.5625
          OVERALL BASIS SET ON ATOM IS LAPW
:E1_0002: E( 1)=    0.5625
             APW+lo
:E1_0002: E( 1)=   -3.2135   E(BOTTOM)=   -3.246   E(TOP)=   -3.181  1  2   172
             LOCAL ORBITAL
:E2_0002: E( 2)=    0.5736   E(BOTTOM)=    0.335   E(TOP)=    0.813  0  1   129
             APW+lo
:E0_0002: E( 0)=    0.5625
             APW+lo

          ATOMIC SPHERE DEPENDENT PARAMETERS FOR ATOM  Rh1       
:e__0003: OVERALL ENERGY PARAMETER IS    0.5625
          OVERALL BASIS SET ON ATOM IS LAPW
:E0_0003: E( 0)=    0.5625
             APW+lo
:E0_0003: E( 0)=   -4.9126   E(BOTTOM)=   -4.946   E(TOP)=   -4.880  3  4   177
             LOCAL ORBITAL
:E1_0003: E( 1)=    0.5625
             APW+lo
:E1_0003: E( 1)=   -2.5748   E(BOTTOM)=   -2.673   E(TOP)=   -2.476  2  3   169
             LOCAL ORBITAL
:E2_0003: E( 2)=    0.5625   E(BOTTOM)=    0.233   E(TOP)= -200.000  1 -1    85
             APW+lo

       K=   0.00000   0.00000   0.00000            1
:RKM  : MATRIX SIZE   187LOs:  50  RKM= 6.64  WEIGHT= 1.00  PGR:    
       EIGENVALUES ARE:
:EIG00001:      -4.9074580   -4.9051318   -3.2064970   -3.2064970   -3.2064970
:EIG00006:      -3.0177179   -3.0177179   -3.0177179   -2.5576814   -2.5576814
:EIG00011:      -2.5576814   -2.5500686   -2.5500686   -2.5500686    0.1496851
:EIG00016:       0.4050100    0.4050100    0.4860410    0.4860410    0.4860410
:EIG00021:       0.5488886    0.5488886    0.5488886    0.6697984    0.6697984
:EIG00026:       0.6697984    0.7049247    0.7049247    0.8410272    0.8410272
:EIG00031:       0.8460401    0.8460401    0.8748832    0.8748832    0.8748832
:EIG00036:       1.3160332    1.4029150    1.4029150    1.4029150    1.4103182
:EIG00041:       1.4103182    1.4103182    1.5160919    1.5160919    1.5160919
:EIG00046:       1.5805899    2.0747648    2.0747648    2.1431667    2.2422263
 
:EIG00051:       2.2422263    2.2422263
       ********************************************************

:KPT   :      NUMBER OF K-POINTS:    47
:LMAX-WF:   10   Non-Spherical LMAX:   4

          ATOMIC SPHERE DEPENDENT PARAMETERS FOR ATOM  Fe1       
:e__0001: OVERALL ENERGY PARAMETER IS    0.5625
          OVERALL BASIS SET ON ATOM IS LAPW
:E1_0001: E( 1)=    0.5625
             APW+lo
:E1_0001: E( 1)=   -3.2139   E(BOTTOM)=   -3.247   E(TOP)=   -3.181  1  2   156
             LOCAL ORBITAL
:E2_0001: E( 2)=    0.5689   E(BOTTOM)=    0.326   E(TOP)=    0.811  0  1   119
             APW+lo
:E0_0001: E( 0)=    0.5625
             APW+lo

          ATOMIC SPHERE DEPENDENT PARAMETERS FOR ATOM  Fe2       
:e__0002: OVERALL ENERGY PARAMETER IS    0.5625
          OVERALL BASIS SET ON ATOM IS LAPW
:E1_0002: E( 1)=    0.5625
             APW+lo
:E1_0002: E( 1)=   -3.0328   E(BOTTOM)=   -3.067   E(TOP)=   -2.999  1  2   194
             LOCAL ORBITAL
:E2_0002: E( 2)=    0.7352   E(BOTTOM)=    0.478   E(TOP)=    0.993  0  1   119
             APW+lo
:E0_0002: E( 0)=    0.5625
             APW+lo

          ATOMIC SPHERE DEPENDENT PARAMETERS FOR ATOM  Rh1       
:e__0003: OVERALL ENERGY PARAMETER IS    0.5625
          OVERALL BASIS SET ON ATOM IS LAPW
:E0_0003: E( 0)=    0.5625
             APW+lo
:E0_0003: E( 0)=   -5.0045   E(BOTTOM)=   -5.038   E(TOP)=   -4.971  3  4   167
             LOCAL ORBITAL
:E1_0003: E( 1)=    0.5625
             APW+lo
:E1_0003: E( 1)=   -2.6729   E(BOTTOM)=   -2.773   E(TOP)=   -2.573  2  3   159
             LOCAL ORBITAL
:E2_0003: E( 2)=    0.5781   E(BOTTOM)=    0.121   E(TOP)=    1.035  1  2   147
             APW+lo

       K=   0.00000   0.00000   0.00000            1
:RKM  : MATRIX SIZE   187LOs:  50  RKM= 6.64  WEIGHT= 1.00  PGR:    
       EIGENVALUES ARE:
:EIG00001:      -4.9992213   -4.9968245   -3.2069659   -3.2069659   -3.2069659
:EIG00006:      -3.0256917   -3.0256917   -3.0256917   -2.6556930   -2.6556930
:EIG00011:      -2.6556930   -2.6477511   -2.6477511   -2.6477511    0.0537963
:EIG00016:       0.3178030    0.3178030    0.3819154    0.3819154    0.3819154
:EIG00021:       0.5133056    0.5133056    0.5133056    0.5953125    0.5953125
:EIG00026:       0.5953125    0.6739234    0.6739234    0.7326081    0.7326081
:EIG00031:       0.8236091    0.8236091    0.8255534    0.8255534    0.8255534
:EIG00036:       1.2641670    1.3136818    1.3136818    1.3136818    1.3213698
:EIG00041:       1.3213698    1.3213698    1.4317935    1.4317935    1.4317935
:EIG00046:       1.4661446    1.9837755    1.9837755    2.0677625    2.1280343
 
:EIG00051:       2.1280343    2.1280343
       ********************************************************

:KPT   :      NUMBER OF K-POINTS:    47
:GAP (global)   :    0.0    Ry =     0.0   eV (metal)
:GAP (this spin):    0.0    Ry =     0.0   eV (metal)
         Bandranges (emin - emax) and occupancy:
:BAN00021:  21    0.503028    0.563297  1.00000000
:BAN00022:  22    0.531585    0.614916  1.00000000
:BAN00023:  23    0.534259    0.650719  1.00000000
:BAN00024:  24    0.586223    0.669798  1.00000000
:BAN00025:  25    0.593492    0.687064  1.00000000
:BAN00026:  26    0.593492    0.704163  1.00000000
:BAN00027:  27    0.681348    0.719089  1.00000000
:BAN00028:  28    0.703915    0.727727  1.00000000
:BAN00029:  29    0.715779    0.841027  0.94356629
:BAN00030:  30    0.737886    0.841027  0.85923647
:BAN00031:  31    0.758783    0.846040  0.39571723
:BAN00032:  32    0.804759    0.846040  0.00000000
:BAN00033:  33    0.818157    0.874883  0.00000000
:BAN00034:  34    0.831519    0.874883  0.00000000
:BAN00035:  35    0.851853    0.901316  0.00000000
:BAN00036:  36    0.885859    1.316033  0.00000000
        Energy to separate low and high energystates:    0.09969


:NOE  : NUMBER OF ELECTRONS          =   62.000

:FER  : F E R M I - ENERGY(TETRAH.M.)=   0.7815100757
:GMA  : POTENTIAL AND CHARGE CUT-OFF  12.00 Ry**.5

:POS001: ATOM    1 X,Y,Z = 0.00000 0.00000 0.00000  MULT= 1  ZZ= 26.000  Fe1       

       LMMAX  5
       LM=   0 0  4 0  4 4  6 0  6 4

:CHA001: TOTAL VALENCE CHARGE INSIDE SPHERE   1 =   5.2005    (RMT=  2.4300 )
:PCS001: PARTIAL CHARGES SPHERE =  1 S,P,D,F,      D-EG,D-T2G 
:QTL001: 0.2359 3.2508 1.6810 0.0244 0.0000 0.0000 0.0000 0.3743 1.3067 0.0000 0.0000 0.0000
        Q-s-low E-s-low   Q-p-low E-p-low   Q-d-low E-d-low   Q-f-low E-f-low
:EPL001:  0.0006 -2.6632    2.9948 -3.0175    0.0014 -2.6832    0.0006 -2.7009
        Q-s-hi  E-s-hi    Q-p-hi  E-p-hi    Q-d-hi  E-d-hi    Q-f-hi  E-f-hi 
:EPH001:  0.2354  0.4202    0.2560  0.5601    1.6796  0.6365    0.0238  0.6199

:POS002: ATOM    2 X,Y,Z = 0.50000 0.00000 0.00000  MULT= 1  ZZ= 26.000  Fe2       

       LMMAX  5
       LM=   0 0  4 0  4 4  6 0  6 4

:CHA002: TOTAL VALENCE CHARGE INSIDE SPHERE   2 =   7.8933    (RMT=  2.4300 )
:PCS002: PARTIAL CHARGES SPHERE =  2 S,P,D,F,      D-EG,D-T2G 
:QTL002: 0.2659 3.2965 4.2958 0.0263 0.0000 0.0000 0.0000 1.8138 2.4820 0.0000 0.0000 0.0000
        Q-s-low E-s-low   Q-p-low E-p-low   Q-d-low E-d-low   Q-f-low E-f-low
:EPL002:  0.0006 -2.6604    2.9954 -3.2062    0.0014 -2.6807    0.0006 -2.6989
        Q-s-hi  E-s-hi    Q-p-hi  E-p-hi    Q-d-hi  E-d-hi    Q-f-hi  E-f-hi 
:EPH002:  0.2653  0.3750    0.3011  0.5495    4.2944  0.5933    0.0257  0.6277

:POS003: ATOM    3 X,Y,Z = 0.25000 0.25000 0.25000  MULT= 2  ZZ= 45.000  Rh1       

       LMMAX  6
       LM=   0 0  4 0  4 4  6 0  6 4 -3 2

:CHA003: TOTAL VALENCE CHARGE INSIDE SPHERE   3 =   7.3574    (RMT=  2.4300 )
:PCS003: PARTIAL CHARGES SPHERE =  3 S,P,D,F,      D-EG,D-T2G 
:QTL003: 1.1776 3.1660 2.9886 0.0198 0.0000 0.0000 0.0000 1.0945 1.8941 0.0000 0.0000 0.0000
        Q-s-low E-s-low   Q-p-low E-p-low   Q-d-low E-d-low   Q-f-low E-f-low
:EPL003:  0.9987 -4.9059    2.9791 -2.5545    0.0004 -3.0399    0.0002 -3.0390
        Q-s-hi  E-s-hi    Q-p-hi  E-p-hi    Q-d-hi  E-d-hi    Q-f-hi  E-f-hi 
:EPH003:  0.1788  0.4058    0.1869  0.5658    2.9882  0.5965    0.0196  0.6168

:CHA  : TOTAL VALENCE CHARGE INSIDE UNIT CELL =      30.198520

:SUM  : SUM OF EIGENVALUES =         -34.483420002

:GAP (global)   :    0.0    Ry =     0.0   eV (metal)
:GAP (this spin):    0.0    Ry =     0.0   eV (metal)
         Bandranges (emin - emax) and occupancy:
:BAN00023:  23    0.456996    0.544707  1.00000000
:BAN00024:  24    0.498307    0.603014  1.00000000
:BAN00025:  25    0.500042    0.647955  1.00000000
:BAN00026:  26    0.504222    0.651541  1.00000000
:BAN00027:  27    0.616232    0.673923  1.00000000
:BAN00028:  28    0.652220    0.686241  1.00000000
:BAN00029:  29    0.660626    0.732608  1.00000000
:BAN00030:  30    0.685089    0.732608  1.00000000
:BAN00031:  31    0.693760    0.823609  0.98361515
:BAN00032:  32    0.722970    0.823609  0.81358963
:BAN00033:  33    0.774722    0.825553  0.00427524
:BAN00034:  34    0.790957    0.825553  0.00000000
:BAN00035:  35    0.807887    0.858079  0.00000000
:BAN00036:  36    0.839249    1.264167  0.00000000
:BAN00037:  37    0.841990    1.313682  0.00000000
:BAN00038:  38    0.851618    1.313682  0.00000000
        Energy to separate low and high energystates:    0.00380


:NOE  : NUMBER OF ELECTRONS          =   62.000

:FER  : F E R M I - ENERGY(TETRAH.M.)=   0.7815100757
:GMA  : POTENTIAL AND CHARGE CUT-OFF  12.00 Ry**.5

:POS001: ATOM    1 X,Y,Z = 0.00000 0.00000 0.00000  MULT= 1  ZZ= 26.000  Fe1       

       LMMAX  5
       LM=   0 0  4 0  4 4  6 0  6 4

:CHA001: TOTAL VALENCE CHARGE INSIDE SPHERE   1 =   7.9117    (RMT=  2.4300 )
:PCS001: PARTIAL CHARGES SPHERE =  1 S,P,D,F,      D-EG,D-T2G 
:QTL001: 0.2532 3.2985 4.3203 0.0290 0.0000 0.0000 0.0000 1.7684 2.5519 0.0000 0.0000 0.0000
        Q-s-low E-s-low   Q-p-low E-p-low   Q-d-low E-d-low   Q-f-low E-f-low
:EPL001:  0.0006 -2.7591    2.9951 -3.2067    0.0015 -2.7787    0.0006 -2.7962
        Q-s-hi  E-s-hi    Q-p-hi  E-p-hi    Q-d-hi  E-d-hi    Q-f-hi  E-f-hi 
:EPH001:  0.2526  0.2959    0.3034  0.4687    4.3188  0.5857    0.0284  0.5393

:POS002: ATOM    2 X,Y,Z = 0.50000 0.00000 0.00000  MULT= 1  ZZ= 26.000  Fe2       

       LMMAX  5
       LM=   0 0  4 0  4 4  6 0  6 4

:CHA002: TOTAL VALENCE CHARGE INSIDE SPHERE   2 =   5.1558    (RMT=  2.4300 )
:PCS002: PARTIAL CHARGES SPHERE =  2 S,P,D,F,      D-EG,D-T2G 
:QTL002: 0.2255 3.2623 1.6285 0.0289 0.0000 0.0000 0.0000 0.4244 1.2041 0.0000 0.0000 0.0000
        Q-s-low E-s-low   Q-p-low E-p-low   Q-d-low E-d-low   Q-f-low E-f-low
:EPL002:  0.0006 -2.7615    2.9945 -3.0254    0.0014 -2.7808    0.0006 -2.7980
        Q-s-hi  E-s-hi    Q-p-hi  E-p-hi    Q-d-hi  E-d-hi    Q-f-hi  E-f-hi 
:EPH002:  0.2249  0.3235    0.2678  0.4742    1.6271  0.6164    0.0283  0.5431

:POS003: ATOM    3 X,Y,Z = 0.25000 0.25000 0.25000  MULT= 2  ZZ= 45.000  Rh1       

       LMMAX  6
       LM=   0 0  4 0  4 4  6 0  6 4 -3 2

:CHA003: TOTAL VALENCE CHARGE INSIDE SPHERE   3 =   8.0772    (RMT=  2.4300 )
:PCS003: PARTIAL CHARGES SPHERE =  3 S,P,D,F,      D-EG,D-T2G 
:QTL003: 1.1964 3.1949 3.6563 0.0237 0.0000 0.0000 0.0000 1.4764 2.1799 0.0000 0.0000 0.0000
        Q-s-low E-s-low   Q-p-low E-p-low   Q-d-low E-d-low   Q-f-low E-f-low
:EPL003:  0.9987 -4.9976    2.9786 -2.6524    0.0004 -3.0576    0.0002 -3.0571
        Q-s-hi  E-s-hi    Q-p-hi  E-p-hi    Q-d-hi  E-d-hi    Q-f-hi  E-f-hi 
:EPH003:  0.1977  0.3325    0.2163  0.5047    3.6559  0.5254    0.0235  0.5828

:CHA  : TOTAL VALENCE CHARGE INSIDE UNIT CELL =      31.801480

:SUM  : SUM OF EIGENVALUES =         -35.272454198


        1.ATOM      Fe1                   5 CORE STATES
:1S 001: 1S                -512.974694429 Ry
:2S 001: 2S                 -58.841606551 Ry
:2PP001: 2P*                -50.555738739 Ry
:2P 001: 2P                 -49.637328370 Ry
:3S 001: 3S                  -5.503228767 Ry

        2.ATOM      Fe2                   5 CORE STATES
:1S 002: 1S                -512.980245882 Ry
:2S 002: 2S                 -58.927990579 Ry
:2PP002: 2P*                -50.621334556 Ry
:2P 002: 2P                 -49.704694118 Ry
:3S 002: 3S                  -5.695727378 Ry

        3.ATOM      Rh1                   9 CORE STATES
:1S 003: 1S               -1691.274767998 Ry
:2S 003: 2S                -244.156736771 Ry
:2PP003: 2P*               -225.969389372 Ry
:2P 003: 2P                -215.339619994 Ry
:3S 003: 3S                 -42.700826522 Ry
:3PP003: 3P*                -35.581764878 Ry
:3P 003: 3P                 -33.753581619 Ry
:3DD003: 3D*                -21.151846578 Ry
:3D 003: 3D                 -20.791325099 Ry

        1.ATOM      Fe1                   5 CORE STATES
:1S 001: 1S                -512.975475033 Ry
:2S 001: 2S                 -58.923687333 Ry
:2PP001: 2P*                -50.616926157 Ry
:2P 001: 2P                 -49.700295745 Ry
:3S 001: 3S                  -5.695294762 Ry

        2.ATOM      Fe2                   5 CORE STATES
:1S 002: 1S                -512.979537387 Ry
:2S 002: 2S                 -58.846661257 Ry
:2PP002: 2P*                -50.560755775 Ry
:2P 002: 2P                 -49.642348764 Ry
:3S 002: 3S                  -5.510346510 Ry

        3.ATOM      Rh1                   9 CORE STATES
:1S 003: 1S               -1691.275881434 Ry
:2S 003: 2S                -244.177255838 Ry
:2PP003: 2P*               -225.984319823 Ry
:2P 003: 2P                -215.355589957 Ry
:3S 003: 3S                 -42.712242552 Ry
:3PP003: 3P*                -35.594968662 Ry
:3P 003: 3P                 -33.766354627 Ry
:3DD003: 3D*                -21.171293792 Ry
:3D 003: 3D                 -20.810710180 Ry
:CINT001 Core Integral Atom   1 Up    5.999593 Dn   5.999611 Total  11.999203
:CINT002 Core Integral Atom   2 Up    5.999620 Dn   5.999581 Total  11.999201
:CINT003 Core Integral Atom   3 Up   14.000000 Dn  14.000000 Total  28.000000

       DENSITY AT NUCLEUS
        JATOM        VALENCE       SEMI-CORE          CORE           TOTAL
:RTO001:   1        7.250359        0.000000    15301.715636    15308.965995
:RTO002:   2        7.285201        0.000000    15301.734215    15309.019416
:RTO003:   3      537.710234        0.000000   154797.022068   155334.732302

       HYPERFINE FIELDS FOR THOMSON RADIUS
:HFF001:         -116.433           0.000         301.163         184.730 (KGAUSS)
:HFF002:          347.070           0.000        -248.887          98.183 (KGAUSS)
:HFF003:           33.630           0.000          72.825         106.454 (KGAUSS)
     
       CHARGES OF NEW CHARGE DENSITY
:NTO   : INTERSTITIAL     UP =     2.389943 DN =     2.579530 TOT =     4.969473
:NPC   : PW Pseudocharge  UP =     5.820290 DN =     6.189183 TOT =    12.009474
:NTO001: CHARGE SPHERE  1 UP =    11.200076 DN =    13.911341 TOT =    25.111417
:NTO002: CHARGE SPHERE  2 UP =    13.892925 DN =    11.155357 TOT =    25.048282
:NTO003: CHARGE SPHERE  3 UP =    21.357379 DN =    22.077205 TOT =    43.434584

:NEC01: NUCLEAR AND ELECTRONIC CHARGE    142.00000   141.99834
     
       CHARGES OF OLD CHARGE DENSITY
:OTO   : INTERSTITIAL     UP =     1.384968 DN =     2.444029 TOT =     3.828997
:OPC   : PW Pseudocharge  UP =     5.234239 DN =     6.982995 TOT =    12.217234
:OTO001: CHARGE SPHERE  1 UP =    11.190635 DN =    14.063241 TOT =    25.253875
:OTO002: CHARGE SPHERE  2 UP =    13.732429 DN =    11.518605 TOT =    25.251034
:OTO003: CHARGE SPHERE  3 UP =    20.871083 DN =    22.961964 TOT =    43.833047

:NEC02: NUCLEAR AND ELECTRONIC CHARGE    142.00000   142.00000
     
       CONVERGENCE TEST
:DTO001: DIFFERENCE SPHERE  1 UP =  0.4733622 DN =  0.1622518 TOT =  0.6356140
:DTO002: DIFFERENCE SPHERE  2 UP =  0.1698776 DN =  0.5401155 TOT =  0.7099932
:DTO003: DIFFERENCE SPHERE  3 UP =  0.2318638 DN =  0.6721461 TOT =  0.9040099

:DIS  :  CHARGE DISTANCE       ( 0.6721461 for atom    3 spin 2)      1.5768135
 PW Mixed is           49
 
******************************************************
* MULTISECANT MIXING VER9 RELEASE 10.4.0              *
* Slow Mode, cautious                                *
* Fixed density scale                                *
* Regularization       1.000E-04                     *
* Step Trust Radius    0.75000                       *
* Trust Upper Limit    2.000E+00                     *
* Max Number of Memory Steps   12                    *
******************************************************
 
:PWTMP   1.1765E+02  4.5917E+02  3.5807E+02
:PLANE:  PW TOTAL      2.6931 DISTAN   7.30E-01  2.71E+01 %
:CHARG:  CLM/ATOM    212.0493 DISTAN   4.48E-01  2.11E-01 %
INFO: Reducing dbase  1.00000E-02 1.57681E+00 7.96361E-03
 
Step History
        DMIX         DMIXT        Red     Pred      Trust     Lambda    MagRel    MagAbs     Beta
  1   3.5000E-02   3.5000E-02 -1.00E+00  1.00E+00 -1.00E+01  1.00E+00  3.50E-02  3.50E-02  1.00E+00
  2   1.6734E-02   1.6734E-02  7.37E-01  1.00E+00 -1.00E+01  1.00E+00  1.67E-02  3.27E-02  1.00E+00
  3   2.2684E-02   2.2684E-02 -1.00E+00  1.00E+00 -1.00E+01  1.00E+00  2.27E-02  3.26E-02  1.00E+00
:JACOBIANS    7.436E-01   3.474E-04
  
:NORMS:  1/Froebius, Min, Max, Used   0.9961E+00  0.4967E+00  0.9963E+00  0.9963E+00
:INFO :  Number of Memory Steps    2 Skipping    0
:INFO :  SLambda=    0.0850510842  Max    0.0850510842
:PREDicted Charge, CTotal, PW Trust    2.526E-03   7.407E-03   3.846E-01
:PREDicted DMix, Beta, BLim   5.1434E-02  9.9267E-01  3.6931E-01

Eigenvalues, unscaled except for SY+YY
   #     SY Real        SY Imag          SS             YY         SY+YY Real      SY+YY Imag
   1   1.985764E+00   0.000000E+00   1.984480E+00   1.999074E+00   2.167966E+00   0.000000E+00
   2  -1.693408E-14   0.000000E+00  -2.184852E-18   9.258215E-04   9.258242E-04   0.000000E+00
 
:INFO :  Singular value  2.168E+00 Weight  1.000E+00 Projection  2.882E-04
:INFO :  Singular value  9.258E-04 Weight  9.555E-01 Projection -2.764E+00
:RANK :  ACTIVE   1.96/2  =  97.77 % ; YY RANK   1.96/2  =  97.77 %
 
:DLIM :  Beta Active  9.945E-01
:BLIM :  VZERO Control Off
:TRUST:  Step 1.40E-01  Charge 7.50E-02 (e) CTO  2.50E-01 (e) PW  3.85E-01 (e)
:DIRM :  MEMORY  2/12 SCALE   1.000 RED  0.97 PRED  1.00 NEXT  1.00 BETA  0.99
:TRAVE:  Charge 1.59E-02 (e) CTO  4.29E-02 (e) PW  2.02E-02 (e)
:DIRP :  |MSR1|= 1.406E-02 |PRATT|= 3.652E-01 ANGLE=   3.7 DEGREES
:DIRQ :  |MSR1|= 5.076E-02 |PRATT|= 1.344E+00 ANGLE=   3.6 DEGREES
:DIRT :  |MSR1|= 5.267E-02 |PRATT|= 1.393E+00 ANGLE=   3.6 DEGREES
:MIX  :   MSD1   REGULARIZATION:  2.00E-04 GREED: 0.03785  Newton 1.00  0.0378                
     
       CHARGES OF MIXED CHARGE DENSITY
:CTO   : INTERSTITIAL     UP =     1.422950 DN =     2.448930 TOT =     3.871880
:CPC   : PW Pseudocharge  UP =     5.257704 DN =     6.955868 TOT =    12.213571
:CTO001: CHARGE SPHERE  1 UP =    11.191715 DN =    14.057468 TOT =    25.249182
:CTO002: CHARGE SPHERE  2 UP =    13.738206 DN =    11.506346 TOT =    25.244552
:CTO003: CHARGE SPHERE  3 UP =    20.888826 DN =    22.928367 TOT =    43.817193

       SPIN MAGNETIC MOMENTS OF MIXED CHARGE DENSITY
:MMINT:  MAGNETIC MOMENT IN INTERSTITIAL  =   -1.02598
:MMI001: MAGNETIC MOMENT IN SPHERE   1    =   -2.86575
:MMI002: MAGNETIC MOMENT IN SPHERE   2    =    2.23186
:MMI003: MAGNETIC MOMENT IN SPHERE   3    =   -2.03954
:MMTOT:  SPIN MAGNETIC MOMENT IN CELL     =   -5.73896

:NEC03: NUCLEAR AND ELECTRONIC CHARGE    142.00000   142.00000

PW CHANGE     H    K    L      Current       Change    Residue
:PUP001:      0    0    0  1.86573767E-02  1.716E-04  4.451E-03
:PUP002:     -1   -1   -1 -4.87109210E-03  3.075E-05  1.013E-03
:PUP003:      0    0   -2 -7.66176121E-03  8.629E-06  2.590E-04
:PUP004:      0   -2   -2  9.04382865E-03 -2.028E-04 -6.168E-03
:PUP005:     -1   -1   -3  4.95154869E-03 -1.932E-04 -4.871E-03
:PUP006:     -2   -2   -2 -1.21591000E-03  5.287E-05  1.388E-03
:PUP007:      0    0   -4 -7.48573031E-03  9.911E-05  2.386E-03
:PUP008:     -1   -3   -3  4.48228337E-03 -1.951E-05 -3.840E-04
:PUP009:      0   -2   -4  3.65451068E-03 -5.435E-05 -1.476E-03
:PUP010:     -2   -2   -4 -2.44344040E-02  6.886E-04  1.772E-02
:PUP011:     -3   -3   -3  7.88921620E-04 -1.474E-05 -3.775E-04
:PUP012:     -1   -1   -5  2.31386952E-03 -7.622E-05 -1.969E-03
  
:PDN001:      0    0    0  2.62652222E-02 -6.207E-05 -1.830E-03
:PDN002:     -1   -1   -1  4.97928845E-03 -3.441E-05 -1.081E-03
:PDN003:      0    0   -2 -1.58566165E-02  1.860E-04  5.284E-03
:PDN004:      0   -2   -2 -1.51786663E-04  1.318E-04  1.940E-03
:PDN005:     -1   -1   -3 -4.83301067E-03  1.970E-04  5.011E-03
:PDN006:     -2   -2   -2  3.56333119E-03 -1.100E-04 -2.642E-03
:PDN007:      0    0   -4 -1.09879393E-02  2.214E-04  5.471E-03
:PDN008:     -1   -3   -3 -4.45364193E-03  2.032E-05  4.174E-04
:PDN009:      0   -2   -4  1.47620367E-02 -4.214E-04 -1.078E-02
:PDN010:     -2   -2   -4 -3.02065586E-02  8.698E-04  2.236E-02
:PDN011:     -3   -3   -3 -7.83000107E-04  1.798E-05  4.499E-04
:PDN012:     -1   -1   -5 -2.31990483E-03  7.128E-05  1.841E-03

:ENE  : ********** TOTAL ENERGY IN Ry =       -24232.19188191

 Flat Integration
 New Mode for Coulomb Integral
 Consistent 3/8+Simpson combinations
 Extension of core to zero
 LDM version in phi
 Fifth-order quadrature in outwin


            ---------
:ITE004:  4. ITERATION
            ---------

:NATO :    3 INDEPENDENT AND    4 TOTAL ATOMS IN UNITCELL
       SUBSTANCE: FeRh                                                        

       LATTICE                      = F   
:POT  : POTENTIAL OPTION EX_PBE EC_PBE VX_PBE VC_PBE
:LAT  : LATTICE CONSTANTS= 11.27222 11.27222 11.27222    1.571    1.571    1.571
:VOL  : UNIT CELL VOLUME =     358.07036
       MODE OF CALCULATION IS       = RELA
       SPINPOLARIZED CALCULATION
:IFFT  : FFT-parameters:   90   90   90 Factor: 2.00


   CONVERGENCE PARAMETER FOR PSEUDOCHARGE: NCON=  9
   MAXIMAL VALUE OF RMT(JATOM)*ABSK(NKK) : RK  =29.05063


:VKCOUL :  VK-COUL convergence: 0.553E-07
       ATOMNUMBER=  1 Fe1        VCOUL-ZERO =  0.62404E+00
       ATOMNUMBER=  2 Fe2        VCOUL-ZERO =  0.62314E+00
       ATOMNUMBER=  3 Rh1        VCOUL-ZERO =  0.59379E+00
:FIT001: LUSE= 13 SIGMA OF V-XC FIT FOR ATOM  1  0.1948604E-02
:FIT001: LUSE= 13 SIGMA OF V-XC FIT FOR ATOM  1  0.6103721E-02
:FIT002: LUSE= 13 SIGMA OF V-XC FIT FOR ATOM  2  0.5721513E-02
:FIT002: LUSE= 13 SIGMA OF V-XC FIT FOR ATOM  2  0.8731295E-02
:FIT003: LUSE= 13 SIGMA OF V-XC FIT FOR ATOM  3  0.4561334E-02
:FIT003: LUSE= 13 SIGMA OF V-XC FIT FOR ATOM  3  0.1017322E-02
:DEN  : DENSITY INTEGRAL  =         -9879.26012816   (Ry)
       ELS_POTENTIAL_AT Z=0 and Z=0.5:  -0.20048  -0.20048
       ELS_POTENTIAL_AT Y=0 and Y=0.5:   0.00000   0.00000
:VZERO:v0,v0c,v0x  -0.73196  -0.20048  -0.53148 v5,v5c,v5x  -0.73196  -0.20048  -0.53148
:VZERY:v0,v0c,v0x  -0.75176   0.00000  -0.75176 v5,v5c,v5x  -0.75176   0.00000  -0.75176
:VZERX:v0,v0c,v0x  -0.75176   0.00000  -0.75176 v5,v5c,v5x  -0.75176   0.00000  -0.75176
:LMAX-WF:   10   Non-Spherical LMAX:   4

          ATOMIC SPHERE DEPENDENT PARAMETERS FOR ATOM  Fe1       
:e__0001: OVERALL ENERGY PARAMETER IS    0.5752
          OVERALL BASIS SET ON ATOM IS LAPW
:E1_0001: E( 1)=    0.5752
             APW+lo
:E1_0001: E( 1)=   -3.0395   E(BOTTOM)=   -3.073   E(TOP)=   -3.006  1  2   170
             LOCAL ORBITAL
:E2_0001: E( 2)=    0.7374   E(BOTTOM)=    0.488   E(TOP)=    0.987  0  1   127
             APW+lo
:E0_0001: E( 0)=    0.5752
             APW+lo

          ATOMIC SPHERE DEPENDENT PARAMETERS FOR ATOM  Fe2       
:e__0002: OVERALL ENERGY PARAMETER IS    0.5752
          OVERALL BASIS SET ON ATOM IS LAPW
:E1_0002: E( 1)=    0.5752
             APW+lo
:E1_0002: E( 1)=   -3.2311   E(BOTTOM)=   -3.263   E(TOP)=   -3.199  1  2   171
             LOCAL ORBITAL
:E2_0002: E( 2)=    0.5598   E(BOTTOM)=    0.324   E(TOP)=    0.796  0  1   125
             APW+lo
:E0_0002: E( 0)=    0.5752
             APW+lo

          ATOMIC SPHERE DEPENDENT PARAMETERS FOR ATOM  Rh1       
:e__0003: OVERALL ENERGY PARAMETER IS    0.5752
          OVERALL BASIS SET ON ATOM IS LAPW
:E0_0003: E( 0)=    0.5752
             APW+lo
:E0_0003: E( 0)=   -4.9309   E(BOTTOM)=   -4.964   E(TOP)=   -4.898  3  4   170
             LOCAL ORBITAL
:E1_0003: E( 1)=    0.5752
             APW+lo
:E1_0003: E( 1)=   -2.5915   E(BOTTOM)=   -2.689   E(TOP)=   -2.494  2  3   163
             LOCAL ORBITAL
:E2_0003: E( 2)=    0.5752   E(BOTTOM)=    0.223   E(TOP)= -200.000  1 -1    93
             APW+lo

       K=   0.00000   0.00000   0.00000            1
:RKM  : MATRIX SIZE   187LOs:  50  RKM= 6.64  WEIGHT= 1.00  PGR:    
       EIGENVALUES ARE:
:EIG00001:      -4.9258001   -4.9234971   -3.2242121   -3.2242121   -3.2242121
:EIG00006:      -3.0324012   -3.0324012   -3.0324012   -2.5744950   -2.5744950
:EIG00011:      -2.5744950   -2.5669699   -2.5669699   -2.5669699    0.1447987
:EIG00016:       0.3953351    0.3953351    0.4767880    0.4767880    0.4767880
:EIG00021:       0.5367001    0.5367001    0.5367001    0.6582918    0.6582918
:EIG00026:       0.6582918    0.6901684    0.6901684    0.8277058    0.8277058
:EIG00031:       0.8342420    0.8342420    0.8609955    0.8609955    0.8609955
:EIG00036:       1.3112306    1.3971652    1.3971652    1.3971652    1.4006883
:EIG00041:       1.4006883    1.4006883    1.5066690    1.5066690    1.5066690
:EIG00046:       1.5736647    2.0638841    2.0638841    2.1372463    2.2373950
 
:EIG00051:       2.2373950    2.2373950
       ********************************************************

:KPT   :      NUMBER OF K-POINTS:    47
:LMAX-WF:   10   Non-Spherical LMAX:   4

          ATOMIC SPHERE DEPENDENT PARAMETERS FOR ATOM  Fe1       
:e__0001: OVERALL ENERGY PARAMETER IS    0.5752
          OVERALL BASIS SET ON ATOM IS LAPW
:E1_0001: E( 1)=    0.5752
             APW+lo
:E1_0001: E( 1)=   -3.2292   E(BOTTOM)=   -3.262   E(TOP)=   -3.197  1  2   150
             LOCAL ORBITAL
:E2_0001: E( 2)=    0.5572   E(BOTTOM)=    0.318   E(TOP)=    0.797  0  1   124
             APW+lo
:E0_0001: E( 0)=    0.5752
             APW+lo

          ATOMIC SPHERE DEPENDENT PARAMETERS FOR ATOM  Fe2       
:e__0002: OVERALL ENERGY PARAMETER IS    0.5752
          OVERALL BASIS SET ON ATOM IS LAPW
:E1_0002: E( 1)=    0.5752
             APW+lo
:E1_0002: E( 1)=   -3.0492   E(BOTTOM)=   -3.083   E(TOP)=   -3.015  1  2   192
             LOCAL ORBITAL
:E2_0002: E( 2)=    0.7226   E(BOTTOM)=    0.468   E(TOP)=    0.977  0  1   122
             APW+lo
:E0_0002: E( 0)=    0.5752
             APW+lo

          ATOMIC SPHERE DEPENDENT PARAMETERS FOR ATOM  Rh1       
:e__0003: OVERALL ENERGY PARAMETER IS    0.5752
          OVERALL BASIS SET ON ATOM IS LAPW
:E0_0003: E( 0)=    0.5752
             APW+lo
:E0_0003: E( 0)=   -5.0207   E(BOTTOM)=   -5.054   E(TOP)=   -4.987  3  4   165
             LOCAL ORBITAL
:E1_0003: E( 1)=    0.5752
             APW+lo
:E1_0003: E( 1)=   -2.6874   E(BOTTOM)=   -2.787   E(TOP)=   -2.588  2  3   150
             LOCAL ORBITAL
:E2_0003: E( 2)=    0.5679   E(BOTTOM)=    0.114   E(TOP)=    1.022  1  2   144
             APW+lo

       K=   0.00000   0.00000   0.00000            1
:RKM  : MATRIX SIZE   187LOs:  50  RKM= 6.64  WEIGHT= 1.00  PGR:    
       EIGENVALUES ARE:
:EIG00001:      -5.0155061   -5.0131368   -3.2223681   -3.2223681   -3.2223681
:EIG00006:      -3.0421735   -3.0421735   -3.0421735   -2.6702687   -2.6702687
:EIG00011:      -2.6702687   -2.6624385   -2.6624385   -2.6624385    0.0527749
:EIG00016:       0.3113038    0.3113038    0.3759343    0.3759343    0.3759343
:EIG00021:       0.5042480    0.5042480    0.5042480    0.5858615    0.5858615
:EIG00026:       0.5858615    0.6613757    0.6613757    0.7216559    0.7216559
:EIG00031:       0.8109326    0.8109326    0.8126846    0.8126846    0.8126846
:EIG00036:       1.2616944    1.3117493    1.3117493    1.3117493    1.3143862
:EIG00041:       1.3143862    1.3143862    1.4258896    1.4258896    1.4258896
:EIG00046:       1.4629763    1.9772348    1.9772348    2.0642756    2.1278874
 
:EIG00051:       2.1278874    2.1278874
       ********************************************************

:KPT   :      NUMBER OF K-POINTS:    47
:GAP (global)   :    0.0    Ry =     0.0   eV (metal)
:GAP (this spin):    0.0    Ry =     0.0   eV (metal)
         Bandranges (emin - emax) and occupancy:
:BAN00021:  21    0.491867    0.551621  1.00000000
:BAN00022:  22    0.521059    0.603654  1.00000000
:BAN00023:  23    0.525236    0.639277  1.00000000
:BAN00024:  24    0.575318    0.658292  1.00000000
:BAN00025:  25    0.582607    0.673663  1.00000000
:BAN00026:  26    0.582719    0.690484  1.00000000
:BAN00027:  27    0.667682    0.705029  1.00000000
:BAN00028:  28    0.689238    0.715032  1.00000000
:BAN00029:  29    0.703191    0.827706  0.94468815
:BAN00030:  30    0.726320    0.827706  0.86141035
:BAN00031:  31    0.746536    0.834242  0.42748043
:BAN00032:  32    0.792758    0.834242  0.00000000
:BAN00033:  33    0.805549    0.860995  0.00000000
:BAN00034:  34    0.818281    0.861484  0.00000000
:BAN00035:  35    0.839927    0.887427  0.00000000
:BAN00036:  36    0.873322    1.311231  0.00000000
        Energy to separate low and high energystates:    0.09480


:NOE  : NUMBER OF ELECTRONS          =   62.000

:FER  : F E R M I - ENERGY(TETRAH.M.)=   0.7694800583
:GMA  : POTENTIAL AND CHARGE CUT-OFF  12.00 Ry**.5

:POS001: ATOM    1 X,Y,Z = 0.00000 0.00000 0.00000  MULT= 1  ZZ= 26.000  Fe1       

       LMMAX  5
       LM=   0 0  4 0  4 4  6 0  6 4

:CHA001: TOTAL VALENCE CHARGE INSIDE SPHERE   1 =   5.1958    (RMT=  2.4300 )
:PCS001: PARTIAL CHARGES SPHERE =  1 S,P,D,F,      D-EG,D-T2G 
:QTL001: 0.2345 3.2472 1.6816 0.0242 0.0000 0.0000 0.0000 0.3736 1.3080 0.0000 0.0000 0.0000
        Q-s-low E-s-low   Q-p-low E-p-low   Q-d-low E-d-low   Q-f-low E-f-low
:EPL001:  0.0005 -2.6803    2.9949 -3.0322    0.0014 -2.7004    0.0006 -2.7181
        Q-s-hi  E-s-hi    Q-p-hi  E-p-hi    Q-d-hi  E-d-hi    Q-f-hi  E-f-hi 
:EPH001:  0.2339  0.4131    0.2523  0.5508    1.6802  0.6262    0.0236  0.6095

:POS002: ATOM    2 X,Y,Z = 0.50000 0.00000 0.00000  MULT= 1  ZZ= 26.000  Fe2       

       LMMAX  5
       LM=   0 0  4 0  4 4  6 0  6 4

:CHA002: TOTAL VALENCE CHARGE INSIDE SPHERE   2 =   7.9116    (RMT=  2.4300 )
:PCS002: PARTIAL CHARGES SPHERE =  2 S,P,D,F,      D-EG,D-T2G 
:QTL002: 0.2643 3.2915 4.3210 0.0260 0.0000 0.0000 0.0000 1.8200 2.5010 0.0000 0.0000 0.0000
        Q-s-low E-s-low   Q-p-low E-p-low   Q-d-low E-d-low   Q-f-low E-f-low
:EPL002:  0.0006 -2.6776    2.9955 -3.2239    0.0014 -2.6979    0.0006 -2.7161
        Q-s-hi  E-s-hi    Q-p-hi  E-p-hi    Q-d-hi  E-d-hi    Q-f-hi  E-f-hi 
:EPH002:  0.2637  0.3691    0.2961  0.5407    4.3196  0.5803    0.0254  0.6167

:POS003: ATOM    3 X,Y,Z = 0.25000 0.25000 0.25000  MULT= 2  ZZ= 45.000  Rh1       

       LMMAX  6
       LM=   0 0  4 0  4 4  6 0  6 4 -3 2

:CHA003: TOTAL VALENCE CHARGE INSIDE SPHERE   3 =   7.3799    (RMT=  2.4300 )
:PCS003: PARTIAL CHARGES SPHERE =  3 S,P,D,F,      D-EG,D-T2G 
:QTL003: 1.1769 3.1635 3.0146 0.0195 0.0000 0.0000 0.0000 1.1063 1.9084 0.0000 0.0000 0.0000
        Q-s-low E-s-low   Q-p-low E-p-low   Q-d-low E-d-low   Q-f-low E-f-low
:EPL003:  0.9988 -4.9243    2.9794 -2.5713    0.0004 -3.0562    0.0002 -3.0552
        Q-s-hi  E-s-hi    Q-p-hi  E-p-hi    Q-d-hi  E-d-hi    Q-f-hi  E-f-hi 
:EPH003:  0.1781  0.3988    0.1841  0.5567    3.0143  0.5863    0.0193  0.6055

:CHA  : TOTAL VALENCE CHARGE INSIDE UNIT CELL =      30.233579

:SUM  : SUM OF EIGENVALUES =         -34.866195296

:GAP (global)   :    0.0    Ry =     0.0   eV (metal)
:GAP (this spin):    0.0    Ry =     0.0   eV (metal)
         Bandranges (emin - emax) and occupancy:
:BAN00023:  23    0.448635    0.536668  1.00000000
:BAN00024:  24    0.489936    0.592869  1.00000000
:BAN00025:  25    0.491727    0.638004  1.00000000
:BAN00026:  26    0.496751    0.640339  1.00000000
:BAN00027:  27    0.605089    0.661376  1.00000000
:BAN00028:  28    0.640833    0.673710  1.00000000
:BAN00029:  29    0.649334    0.721656  1.00000000
:BAN00030:  30    0.675084    0.721656  1.00000000
:BAN00031:  31    0.685011    0.810933  0.98351677
:BAN00032:  32    0.712114    0.810933  0.77839508
:BAN00033:  33    0.762369    0.812685  0.00450922
:BAN00034:  34    0.778366    0.812685  0.00000000
:BAN00035:  35    0.798937    0.844621  0.00000000
[...]
             LOCAL ORBITAL
:E2_0001: E( 2)=    0.3913   E(BOTTOM)=    0.181   E(TOP)=    0.602  0  1   117
             APW+lo
:E0_0001: E( 0)=    0.4602
             APW+lo

          ATOMIC SPHERE DEPENDENT PARAMETERS FOR ATOM  Fe2       
:e__0002: OVERALL ENERGY PARAMETER IS    0.4602
          OVERALL BASIS SET ON ATOM IS LAPW
:E1_0002: E( 1)=    0.4602
             APW+lo
:E1_0002: E( 1)=   -3.1732   E(BOTTOM)=   -3.205   E(TOP)=   -3.141  1  2   174
             LOCAL ORBITAL
:E2_0002: E( 2)=    0.6195   E(BOTTOM)=    0.379   E(TOP)=    0.860  0  1   122
             APW+lo
:E0_0002: E( 0)=    0.4602
             APW+lo

          ATOMIC SPHERE DEPENDENT PARAMETERS FOR ATOM  Rh1       
:e__0003: OVERALL ENERGY PARAMETER IS    0.4602
          OVERALL BASIS SET ON ATOM IS LAPW
:E0_0003: E( 0)=    0.4602
             APW+lo
:E0_0003: E( 0)=   -5.1305   E(BOTTOM)=   -5.162   E(TOP)=   -5.099  3  4   154
             LOCAL ORBITAL
:E1_0003: E( 1)=    0.4602
             APW+lo
:E1_0003: E( 1)=   -2.7829   E(BOTTOM)=   -2.876   E(TOP)=   -2.689  2  3   146
             LOCAL ORBITAL
:E2_0003: E( 2)=    0.5068   E(BOTTOM)=    0.074   E(TOP)=    0.939  1  2   142
             APW+lo

       K=   0.00000   0.00000   0.00000            1
:RKM  : MATRIX SIZE   187LOs:  50  RKM= 6.64  WEIGHT= 1.00  PGR:    
       EIGENVALUES ARE:
:EIG00001:      -5.1256054   -5.1234379   -3.4253941   -3.4253941   -3.4253941
:EIG00006:      -3.1664080   -3.1664080   -3.1664080   -2.7667654   -2.7667654
:EIG00011:      -2.7667654   -2.7597481   -2.7597481   -2.7597481    0.0416755
:EIG00016:       0.2511438    0.2511438    0.3365551    0.3365551    0.3365551
:EIG00021:       0.3839511    0.3839511    0.3839511    0.5030192    0.5030192
:EIG00026:       0.5102357    0.5102357    0.5102357    0.6547693    0.6547693
:EIG00031:       0.7020714    0.7020714    0.7020714    0.7239297    0.7239297
:EIG00036:       1.2189498    1.2646627    1.2646627    1.2646627    1.2909655
:EIG00041:       1.2909655    1.2909655    1.3768482    1.3768482    1.3768482
:EIG00046:       1.4503639    1.9265808    1.9265808    2.0357113    2.1303200
 
:EIG00051:       2.1303200    2.1303200
       ********************************************************

:KPT   :      NUMBER OF K-POINTS:    47
:GAP (global)   :    0.0    Ry =     0.0   eV (metal)
:GAP (this spin):    0.0    Ry =     0.0   eV (metal)
         Bandranges (emin - emax) and occupancy:
:BAN00023:  23    0.383517    0.481970  1.00000000
:BAN00024:  24    0.424070    0.502901  1.00000000
:BAN00025:  25    0.432778    0.513986  1.00000000
:BAN00026:  26    0.440638    0.523670  1.00000000
:BAN00027:  27    0.493778    0.537001  1.00000000
:BAN00028:  28    0.510111    0.550738  1.00000000
:BAN00029:  29    0.545317    0.655266  1.00000000
:BAN00030:  30    0.563400    0.655266  1.00027547
:BAN00031:  31    0.595828    0.702031  0.97722760
:BAN00032:  32    0.647169    0.702031  0.02169734
:BAN00033:  33    0.667160    0.719304 -0.00004885
:BAN00034:  34    0.679967    0.733092  0.00000000
:BAN00035:  35    0.714120    0.739797  0.00000000
:BAN00036:  36    0.732661    1.218427  0.00000000
:BAN00037:  37    0.744153    1.263990  0.00000000
:BAN00038:  38    0.748916    1.263990  0.00000000
        Energy to separate low and high energystates:   -0.00918


:NOE  : NUMBER OF ELECTRONS          =   62.000

:FER  : F E R M I - ENERGY(TETRAH.M.)=   0.6594028925
:GMA  : POTENTIAL AND CHARGE CUT-OFF  12.00 Ry**.5

:POS001: ATOM    1 X,Y,Z = 0.00000 0.00000 0.00000  MULT= 1  ZZ= 26.000  Fe1       

       LMMAX  5
       LM=   0 0  4 0  4 4  6 0  6 4

:CHA001: TOTAL VALENCE CHARGE INSIDE SPHERE   1 =   4.9681    (RMT=  2.4300 )
:PCS001: PARTIAL CHARGES SPHERE =  1 S,P,D,F,      D-EG,D-T2G 
:QTL001: 0.2247 3.2333 1.4759 0.0252 0.0000 0.0000 0.0000 0.2723 1.2036 0.0000 0.0000 0.0000
        Q-s-low E-s-low   Q-p-low E-p-low   Q-d-low E-d-low   Q-f-low E-f-low
:EPL001:  0.0005 -2.8744    2.9950 -3.1659    0.0013 -2.8942    0.0006 -2.9138
        Q-s-hi  E-s-hi    Q-p-hi  E-p-hi    Q-d-hi  E-d-hi    Q-f-hi  E-f-hi 
:EPH001:  0.2241  0.2892    0.2383  0.4185    1.4746  0.4915    0.0246  0.4729

:POS002: ATOM    2 X,Y,Z = 0.50000 0.00000 0.00000  MULT= 1  ZZ= 26.000  Fe2       

       LMMAX  5
       LM=   0 0  4 0  4 4  6 0  6 4

:CHA002: TOTAL VALENCE CHARGE INSIDE SPHERE   2 =   8.1383    (RMT=  2.4300 )
:PCS002: PARTIAL CHARGES SPHERE =  2 S,P,D,F,      D-EG,D-T2G 
:QTL002: 0.2503 3.2527 4.6021 0.0241 0.0000 0.0000 0.0000 1.8766 2.7256 0.0000 0.0000 0.0000
        Q-s-low E-s-low   Q-p-low E-p-low   Q-d-low E-d-low   Q-f-low E-f-low
:EPL002:  0.0005 -2.8729    2.9960 -3.4255    0.0013 -2.8929    0.0005 -2.9105
        Q-s-hi  E-s-hi    Q-p-hi  E-p-hi    Q-d-hi  E-d-hi    Q-f-hi  E-f-hi 
:EPH002:  0.2497  0.2704    0.2568  0.4122    4.6009  0.4191    0.0235  0.4652

:POS003: ATOM    3 X,Y,Z = 0.25000 0.25000 0.25000  MULT= 2  ZZ= 45.000  Rh1       

       LMMAX  6
       LM=   0 0  4 0  4 4  6 0  6 4 -3 2

:CHA003: TOTAL VALENCE CHARGE INSIDE SPHERE   3 =   7.8227    (RMT=  2.4300 )
:PCS003: PARTIAL CHARGES SPHERE =  3 S,P,D,F,      D-EG,D-T2G 
:QTL003: 1.1764 3.1549 3.4692 0.0173 0.0000 0.0000 0.0000 1.3123 2.1569 0.0000 0.0000 0.0000
        Q-s-low E-s-low   Q-p-low E-p-low   Q-d-low E-d-low   Q-f-low E-f-low
:EPL003:  0.9988 -5.1239    2.9807 -2.7636    0.0004 -3.2219    0.0002 -3.2207
        Q-s-hi  E-s-hi    Q-p-hi  E-p-hi    Q-d-hi  E-d-hi    Q-f-hi  E-f-hi 
:EPH003:  0.1776  0.2849    0.1742  0.4340    3.4688  0.4488    0.0171  0.4613

:CHA  : TOTAL VALENCE CHARGE INSIDE UNIT CELL =      30.999152

:SUM  : SUM OF EIGENVALUES =         -39.369997499

:GAP (global)   :    0.0    Ry =     0.0   eV (metal)
:GAP (this spin):    0.0    Ry =     0.0   eV (metal)
         Bandranges (emin - emax) and occupancy:
:BAN00023:  23    0.383951    0.482241  1.00000000
:BAN00024:  24    0.424110    0.503019  1.00000000
:BAN00025:  25    0.432855    0.514105  1.00000000
:BAN00026:  26    0.440926    0.523847  1.00000000
:BAN00027:  27    0.494155    0.537138  1.00000000
:BAN00028:  28    0.510236    0.550820  1.00000000
:BAN00029:  29    0.545394    0.654769  1.00000000
:BAN00030:  30    0.563606    0.654769  1.00027681
:BAN00031:  31    0.596056    0.702071  0.97718772
:BAN00032:  32    0.646684    0.702071  0.02343192
:BAN00033:  33    0.666948    0.719579 -0.00005281
:BAN00034:  34    0.679871    0.733009  0.00000000
:BAN00035:  35    0.714040    0.739745  0.00000000
:BAN00036:  36    0.732648    1.218950  0.00000000
:BAN00037:  37    0.743997    1.264663  0.00000000
:BAN00038:  38    0.748801    1.264663  0.00000000
        Energy to separate low and high energystates:   -0.00832


:NOE  : NUMBER OF ELECTRONS          =   62.000

:FER  : F E R M I - ENERGY(TETRAH.M.)=   0.6594028925
:GMA  : POTENTIAL AND CHARGE CUT-OFF  12.00 Ry**.5

:POS001: ATOM    1 X,Y,Z = 0.00000 0.00000 0.00000  MULT= 1  ZZ= 26.000  Fe1       

       LMMAX  5
       LM=   0 0  4 0  4 4  6 0  6 4

:CHA001: TOTAL VALENCE CHARGE INSIDE SPHERE   1 =   8.1372    (RMT=  2.4300 )
:PCS001: PARTIAL CHARGES SPHERE =  1 S,P,D,F,      D-EG,D-T2G 
:QTL001: 0.2502 3.2521 4.6017 0.0240 0.0000 0.0000 0.0000 1.8766 2.7251 0.0000 0.0000 0.0000
        Q-s-low E-s-low   Q-p-low E-p-low   Q-d-low E-d-low   Q-f-low E-f-low
:EPL001:  0.0005 -2.8731    2.9960 -3.4252    0.0013 -2.8931    0.0005 -2.9107
        Q-s-hi  E-s-hi    Q-p-hi  E-p-hi    Q-d-hi  E-d-hi    Q-f-hi  E-f-hi 
:EPH001:  0.2496  0.2711    0.2562  0.4125    4.6004  0.4195    0.0235  0.4653

:POS002: ATOM    2 X,Y,Z = 0.50000 0.00000 0.00000  MULT= 1  ZZ= 26.000  Fe2       

       LMMAX  5
       LM=   0 0  4 0  4 4  6 0  6 4

:CHA002: TOTAL VALENCE CHARGE INSIDE SPHERE   2 =   4.9696    (RMT=  2.4300 )
:PCS002: PARTIAL CHARGES SPHERE =  2 S,P,D,F,      D-EG,D-T2G 
:QTL002: 0.2246 3.2328 1.4778 0.0251 0.0000 0.0000 0.0000 0.2727 1.2052 0.0000 0.0000 0.0000
        Q-s-low E-s-low   Q-p-low E-p-low   Q-d-low E-d-low   Q-f-low E-f-low
:EPL002:  0.0005 -2.8746    2.9950 -3.1662    0.0013 -2.8944    0.0006 -2.9140
        Q-s-hi  E-s-hi    Q-p-hi  E-p-hi    Q-d-hi  E-d-hi    Q-f-hi  E-f-hi 
:EPH002:  0.2241  0.2898    0.2378  0.4189    1.4766  0.4918    0.0246  0.4730

:POS003: ATOM    3 X,Y,Z = 0.25000 0.25000 0.25000  MULT= 2  ZZ= 45.000  Rh1       

       LMMAX  6
       LM=   0 0  4 0  4 4  6 0  6 4 -3 2

:CHA003: TOTAL VALENCE CHARGE INSIDE SPHERE   3 =   7.8250    (RMT=  2.4300 )
:PCS003: PARTIAL CHARGES SPHERE =  3 S,P,D,F,      D-EG,D-T2G 
:QTL003: 1.1763 3.1545 3.4720 0.0172 0.0000 0.0000 0.0000 1.3153 2.1567 0.0000 0.0000 0.0000
        Q-s-low E-s-low   Q-p-low E-p-low   Q-d-low E-d-low   Q-f-low E-f-low
:EPL003:  0.9988 -5.1242    2.9807 -2.7638    0.0004 -3.2220    0.0002 -3.2210
        Q-s-hi  E-s-hi    Q-p-hi  E-p-hi    Q-d-hi  E-d-hi    Q-f-hi  E-f-hi 
:EPH003:  0.1775  0.2855    0.1738  0.4343    3.4717  0.4490    0.0171  0.4616

:CHA  : TOTAL VALENCE CHARGE INSIDE UNIT CELL =      31.000844

:SUM  : SUM OF EIGENVALUES =         -39.365390634


        1.ATOM      Fe1                   5 CORE STATES
:1S 001: 1S                -513.190361821 Ry
:2S 001: 2S                 -59.058485017 Ry
:2PP001: 2P*                -50.775416549 Ry
:2P 001: 2P                 -49.856742032 Ry
:3S 001: 3S                  -5.657158562 Ry

        2.ATOM      Fe2                   5 CORE STATES
:1S 002: 1S                -513.189832395 Ry
:2S 002: 2S                 -59.175498823 Ry
:2PP002: 2P*                -50.862407962 Ry
:2P 002: 2P                 -49.946293080 Ry
:3S 002: 3S                  -5.923095280 Ry

        3.ATOM      Rh1                   9 CORE STATES
:1S 003: 1S               -1691.494879547 Ry
:2S 003: 2S                -244.390381131 Ry
:2PP003: 2P*               -226.200097104 Ry
:2P 003: 2P                -215.570868298 Ry
:3S 003: 3S                 -42.918094337 Ry
:3PP003: 3P*                -35.800145880 Ry
:3P 003: 3P                 -33.971306614 Ry
:3DD003: 3D*                -21.374489954 Ry
:3D 003: 3D                 -21.013776920 Ry

        1.ATOM      Fe1                   5 CORE STATES
:1S 001: 1S                -513.190003738 Ry
:2S 001: 2S                 -59.175364414 Ry
:2PP001: 2P*                -50.862310899 Ry
:2P 001: 2P                 -49.946192509 Ry
:3S 001: 3S                  -5.922751281 Ry

        2.ATOM      Fe2                   5 CORE STATES
:1S 002: 1S                -513.190193694 Ry
:2S 002: 2S                 -59.058621018 Ry
:2PP002: 2P*                -50.775514738 Ry
:2P 002: 2P                 -49.856843423 Ry
:3S 002: 3S                  -5.657438284 Ry

        3.ATOM      Rh1                   9 CORE STATES
:1S 003: 1S               -1691.494879245 Ry
:2S 003: 2S                -244.390444000 Ry
:2PP003: 2P*               -226.200141638 Ry
:2P 003: 2P                -215.570916172 Ry
:3S 003: 3S                 -42.918132390 Ry
:3PP003: 3P*                -35.800188506 Ry
:3P 003: 3P                 -33.971348385 Ry
:3DD003: 3D*                -21.374550798 Ry
:3D 003: 3D                 -21.013837632 Ry
:CINT001 Core Integral Atom   1 Up    5.999614 Dn   5.999662 Total  11.999275
:CINT002 Core Integral Atom   2 Up    5.999662 Dn   5.999614 Total  11.999275
:CINT003 Core Integral Atom   3 Up   14.000000 Dn  14.000000 Total  28.000000

       DENSITY AT NUCLEUS
        JATOM        VALENCE       SEMI-CORE          CORE           TOTAL
:RTO001:   1        6.983769        0.000000    15302.841076    15309.824845
:RTO002:   2        6.984601        0.000000    15302.835486    15309.820086
:RTO003:   3      539.769906        0.000000   154797.752571   155337.522477

       HYPERFINE FIELDS FOR THOMSON RADIUS
:HFF001:         -228.093           0.000         388.057         159.963 (KGAUSS)
:HFF002:          228.549           0.000        -388.169        -159.620 (KGAUSS)
:HFF003:            1.169           0.000           0.345           1.514 (KGAUSS)
     
       CHARGES OF NEW CHARGE DENSITY
:NTO   : INTERSTITIAL     UP =     2.247277 DN =     2.244074 TOT =     4.491351
:NPC   : PW Pseudocharge  UP =     5.594834 DN =     5.593196 TOT =    11.188030
:NTO001: CHARGE SPHERE  1 UP =    10.967759 DN =    14.136824 TOT =    25.104582
:NTO002: CHARGE SPHERE  2 UP =    14.137993 DN =    10.969165 TOT =    25.107158
:NTO003: CHARGE SPHERE  3 UP =    21.822683 DN =    21.825012 TOT =    43.647695

:NEC01: NUCLEAR AND ELECTRONIC CHARGE    142.00000   141.99848
     
       CHARGES OF OLD CHARGE DENSITY
:OTO   : INTERSTITIAL     UP =     2.253242 DN =     2.238226 TOT =     4.491468
:OPC   : PW Pseudocharge  UP =     5.608301 DN =     5.595358 TOT =    11.203659
:OTO001: CHARGE SPHERE  1 UP =    10.966135 DN =    14.137853 TOT =    25.103988
:OTO002: CHARGE SPHERE  2 UP =    14.141688 DN =    10.961745 TOT =    25.103433
:OTO003: CHARGE SPHERE  3 UP =    21.825646 DN =    21.824910 TOT =    43.650556

:NEC02: NUCLEAR AND ELECTRONIC CHARGE    142.00000   142.00000
     
       CONVERGENCE TEST
:DTO001: DIFFERENCE SPHERE  1 UP =  0.0038229 DN =  0.0030032 TOT =  0.0068261
:DTO002: DIFFERENCE SPHERE  2 UP =  0.0026598 DN =  0.0065892 TOT =  0.0092490
:DTO003: DIFFERENCE SPHERE  3 UP =  0.0021827 DN =  0.0021161 TOT =  0.0042988

:DIS  :  CHARGE DISTANCE       ( 0.0065892 for atom    2 spin 2)      0.0123364
 PW Mixed is           49
 
******************************************************
* MULTISECANT MIXING VER9 RELEASE 10.4.0              *
* Standard Mode with controls                        *
* Fixed density scale                                *
* Regularization       1.000E-04                     *
* Trust Upper Limit    5.000E+00                     *
* Max Number of Memory Steps    8                    *
******************************************************
 
:PWTMP   1.1765E+02  4.5917E+02  3.5807E+02
:PLANE:  PW TOTAL      2.4487 DISTAN   6.50E-03  2.65E-01 %
:CHARG:  CLM/ATOM    212.0472 DISTAN   4.03E-03  1.90E-03 %
 
Step History
        DMIX         DMIXT        Red     Pred      Trust     Lambda    MagRel    MagAbs     Beta
  7   2.6500E-02   2.6500E-02  9.64E-01  9.73E-01  8.39E-01  3.91E-01  1.40E-02  1.45E-02  7.74E-01
  8   6.6250E-02   6.0064E-02  8.23E-01  8.71E-01  4.35E-01  3.51E-01  4.35E-01  4.34E-01  9.68E-01
  9   1.6562E-01   1.5849E-01  3.65E-01  4.61E-01  9.53E-01  4.23E-01  9.53E-01  7.83E-01  1.00E+00
 10   7.2372E-02   7.2372E-02  7.81E-01  8.16E-01  1.27E+00  4.35E-01  3.53E-01  1.06E-01  1.00E+00
 11   1.8093E-01   1.8093E-01  3.54E-01  3.27E-01  1.63E+00  1.00E+00  1.03E+00  2.41E-01  1.00E+00
 12   8.2187E-02   8.2187E-02  8.57E-01  9.01E-01  2.17E+00  4.12E-01  3.03E-01  2.50E-02  1.00E+00
 13   1.6637E-01   1.6637E-01  8.32E-01  9.15E-01  2.53E+00  6.17E-01  5.78E-01  4.10E-02  1.00E+00
 14   3.5000E-01   3.5000E-01  6.23E-01  3.72E-01  3.05E+00  1.00E+00  8.96E-01  5.29E-02  1.00E+00
 15   2.0510E-01   2.0510E-01 -1.00E+00  3.46E-01  4.06E+00  1.00E+00  5.35E-01  1.97E-02  1.00E+00
:JACOBIANS    3.339E-01   1.463E+00
  
:NORMS:  1/Froebius, Min, Max, Used   0.1221E+01  0.5965E+00  0.1570E+01  0.1563E+01
:INFO :  Number of Memory Steps    8 Skipping    6
:INFO :  SLambda=    0.8340614503  Max    0.8340614503
:PREDicted Charge, CTotal, PW Trust    2.388E-03   4.068E-03   6.165E-03
:PREDicted DMix, Beta, BLim   2.2285E-01  4.6151E-01  7.4799E-01

Eigenvalues, unscaled except for SY+YY
   #     SY Real        SY Imag          SS             YY         SY+YY Real      SY+YY Imag
   1   5.626007E+00   0.000000E+00   9.135184E+00   3.737213E+00   8.403397E+00   0.000000E+00
   2   2.081152E+00   0.000000E+00   2.241166E+00   2.301013E+00   3.999868E+00   0.000000E+00
   3   7.164349E-01   0.000000E+00   5.363223E-01   9.682337E-01   1.576587E+00   0.000000E+00
   4   7.916193E-02   0.000000E+00   1.233775E-02   7.921402E-01   8.996557E-01   0.000000E+00
   5   2.309468E-02   0.000000E+00   4.782552E-03   1.890589E-01   2.191869E-01   0.000000E+00
   6   2.483620E-03   0.000000E+00   8.848026E-04   7.641810E-03   9.688203E-03   0.000000E+00
   7   3.666568E-04   0.000000E+00   2.851482E-04   3.579836E-03   4.323951E-03   0.000000E+00
   8   1.075378E-03   0.000000E+00   8.499328E-05   1.120031E-03   1.650812E-03   0.000000E+00
 
:INFO :  Singular value  8.447E+00 Weight  1.000E+00 Projection -2.163E-03
:INFO :  Singular value  4.003E+00 Weight  1.000E+00 Projection -2.523E-03
:INFO :  Singular value  1.577E+00 Weight  1.000E+00 Projection  4.757E-04
:INFO :  Singular value  8.952E-01 Weight  1.000E+00 Projection  5.222E-03
:INFO :  Singular value  2.191E-01 Weight  1.000E+00 Projection  1.260E-02
:INFO :  Singular value  9.693E-03 Weight  9.985E-01 Projection  2.814E-02
:INFO :  Singular value  4.321E-03 Weight  9.926E-01 Projection  5.740E-02
:INFO :  Singular value  1.651E-03 Weight  9.512E-01 Projection  1.961E-01
:RANK :  ACTIVE   7.94/8  =  99.28 % ; YY RANK   7.89/8  =  98.58 %
 
:DLIM :  Beta Active  8.000E-01
:BLIM :  VZERO Control Off
:TRUST:  Step 5.42E+00  Charge 6.39E-02 (e) CTO  1.34E-01 (e) PW  1.34E-01 (e)
:DIRM :  MEMORY  8/8  SCALE   1.000 RED  0.34 PRED  0.35 NEXT  0.58 BETA  0.80
:TRAVE:  Charge 3.39E-03 (e) CTO  5.11E-03 (e) PW  8.81E-03 (e)
:DIRP :  |MSR1|= 2.956E-03 |PRATT|= 3.249E-03 ANGLE=  14.4 DEGREES
:DIRQ :  |MSR1|= 1.027E-02 |PRATT|= 1.208E-02 ANGLE=  28.1 DEGREES
:DIRT :  |MSR1|= 1.069E-02 |PRATT|= 1.251E-02 ANGLE=  27.3 DEGREES
:MIX  :   MSE1   REGULARIZATION:  3.74E-04 GREED: 0.22366  Newton 1.00  0.8545                
     
       CHARGES OF MIXED CHARGE DENSITY
:CTO   : INTERSTITIAL     UP =     2.248442 DN =     2.243014 TOT =     4.491456
:CPC   : PW Pseudocharge  UP =     5.598658 DN =     5.595465 TOT =    11.194123
:CTO001: CHARGE SPHERE  1 UP =    10.967500 DN =    14.136529 TOT =    25.104029
:CTO002: CHARGE SPHERE  2 UP =    14.137603 DN =    10.966486 TOT =    25.104089
:CTO003: CHARGE SPHERE  3 UP =    21.822061 DN =    21.828152 TOT =    43.650213

       SPIN MAGNETIC MOMENTS OF MIXED CHARGE DENSITY
:MMINT:  MAGNETIC MOMENT IN INTERSTITIAL  =    0.00543
:MMI001: MAGNETIC MOMENT IN SPHERE   1    =   -3.16903
:MMI002: MAGNETIC MOMENT IN SPHERE   2    =    3.17112
:MMI003: MAGNETIC MOMENT IN SPHERE   3    =   -0.00609
:MMTOT:  SPIN MAGNETIC MOMENT IN CELL     =   -0.00467

:NEC03: NUCLEAR AND ELECTRONIC CHARGE    142.00000   142.00000

PW CHANGE     H    K    L      Current       Change    Residue
:PUP001:      0    0    0  2.19149668E-02 -4.034E-05 -4.687E-05
:PUP002:     -1   -1   -1 -2.97541959E-03  2.071E-05  3.577E-05
:PUP003:      0    0   -2 -9.52567333E-03  1.827E-05  1.937E-05
:PUP004:      0   -2   -2  3.39620381E-03 -3.391E-05 -2.733E-05
:PUP005:     -1   -1   -3 -1.59653818E-03  5.203E-05  4.244E-05
:PUP006:     -2   -2   -2  1.26512086E-03 -1.977E-05 -2.436E-05
:PUP007:      0    0   -4 -5.40595040E-03 -5.391E-06  5.254E-06
:PUP008:     -1   -3   -3  4.22979855E-03 -5.471E-07 -4.341E-06
:PUP009:      0   -2   -4  3.96660423E-03 -4.387E-06 -5.910E-06
:PUP010:     -2   -2   -4 -7.85412792E-03 -6.012E-05 -3.420E-05
:PUP011:     -3   -3   -3  4.29664313E-04 -3.937E-06 -7.733E-06
:PUP012:     -1   -1   -5  3.79742681E-04  1.670E-05  1.755E-05
  
:PDN001:      0    0    0  2.18908914E-02  1.367E-05  1.770E-05
:PDN002:     -1   -1   -1  2.97694102E-03 -1.714E-05 -3.568E-05
:PDN003:      0    0   -2 -9.55074465E-03  2.465E-05  4.447E-05
:PDN004:      0   -2   -2  3.46887476E-03 -1.745E-04 -1.951E-04
:PDN005:     -1   -1   -3  1.59581011E-03 -5.345E-05 -4.144E-05
:PDN006:     -2   -2   -2  1.27192248E-03  1.626E-05  6.378E-06
:PDN007:      0    0   -4 -5.39952491E-03 -4.215E-05 -3.534E-05
:PDN008:     -1   -3   -3 -4.23915514E-03  1.305E-05  2.735E-05
:PDN009:      0   -2   -4  3.99218601E-03  5.104E-05  3.029E-05
:PDN010:     -2   -2   -4 -7.89125464E-03 -7.787E-05 -3.371E-05
:PDN011:     -3   -3   -3 -4.27537231E-04  1.734E-06  4.013E-06
:PDN012:     -1   -1   -5 -3.78558567E-04 -1.669E-05 -1.684E-05

:ENE  : ********** TOTAL ENERGY IN Ry =       -24232.23853421

