
:LABEL1: Calculations in /home/cmueller/wien/FZU/src/FeRh/supercell/largeFFM
:LABEL2: on cv036 at Sat Mar 15 03:40:39 PM CET 2025
:LABEL3: using WIEN2k_19.1 (Release 25/6/2019) in /home/cmueller/WIENROOT
:LABEL4: using the command: runsp_lapw
 Flat Integration
 New Mode for Coulomb Integral
 Consistent 3/8+Simpson combinations
 Extension of core to zero
 LDM version in phi
 Fifth-order quadrature in outwin


            ---------
:ITE001:  1. ITERATION
            ---------

:NATO :    6 INDEPENDENT AND    8 TOTAL ATOMS IN UNITCELL
       SUBSTANCE: FeRh                                                        

       LATTICE                      = CYZ 
:POT  : POTENTIAL OPTION EX_PBE EC_PBE VX_PBE VC_PBE
:LAT  : LATTICE CONSTANTS=  5.63611 15.94133 15.94133    1.571    1.571    1.571
:VOL  : UNIT CELL VOLUME =     716.14069
       MODE OF CALCULATION IS       = RELA
       SPINPOLARIZED CALCULATION
:IFFT  : FFT-parameters:   48  128  128 Factor: 2.00


   CONVERGENCE PARAMETER FOR PSEUDOCHARGE: NCON=  9
   MAXIMAL VALUE OF RMT(JATOM)*ABSK(NKK) : RK  =29.11372


:VKCOUL :  VK-COUL convergence: 0.378E-07
       ATOMNUMBER=  1 Fe1        VCOUL-ZERO =  0.72508E+00
:EFG001:                        EFG         =     0.03705   *10**21  V / m**2
                               V20  TOT/SRF=    -0.02504    -0.05812
                               V22  TOT/SRF=    -0.02260    -0.05384
                               V22M TOT/SRF=     0.00000     0.00000
                               V21  TOT/SRF=     0.00000     0.00000
                               V21M TOT/SRF=     0.00000     0.00000

             -0.00814    0.00000    0.00000       -0.00814    0.00000    0.00000
              0.00000    0.03705    0.00000        0.00000    0.03705    0.00000
              0.00000    0.00000   -0.02891        0.00000    0.00000   -0.02891

         MAIN DIRECTIONS OF THE EFG   1.0000  0.0000  0.0000
                                      0.0000  1.0000  0.0000
                                      0.0000  0.0000  1.0000
:ANG001:  ANGLE WITH OLD X-AXIS =         0.0

:ETA001:                         ASYMM. ETA =     0.56048


       ATOMNUMBER=  2 Fe2        VCOUL-ZERO =  0.72508E+00
:EFG002:                        EFG         =     0.03705   *10**21  V / m**2
                               V20  TOT/SRF=    -0.02504    -0.05812
                               V22  TOT/SRF=    -0.02260    -0.05384
                               V22M TOT/SRF=     0.00000     0.00000
                               V21  TOT/SRF=     0.00000     0.00000
                               V21M TOT/SRF=     0.00000     0.00000

             -0.00814    0.00000    0.00000       -0.00814    0.00000    0.00000
              0.00000    0.03705    0.00000        0.00000    0.03705    0.00000
              0.00000    0.00000   -0.02891        0.00000    0.00000   -0.02891

         MAIN DIRECTIONS OF THE EFG   1.0000  0.0000  0.0000
                                      0.0000  1.0000  0.0000
                                      0.0000  0.0000  1.0000
:ANG002:  ANGLE WITH OLD X-AXIS =         0.0

:ETA002:                         ASYMM. ETA =     0.56048


       ATOMNUMBER=  3 Rh1        VCOUL-ZERO =  0.60988E+00
:EFG003:                        EFG         =    -0.03689   *10**21  V / m**2
                               V20  TOT/SRF=     0.00706     0.01758
                               V22  TOT/SRF=    -0.03281    -0.07710
                               V22M TOT/SRF=    -0.00000     0.00000
                               V21  TOT/SRF=     0.00000     0.00000
                               V21M TOT/SRF=     0.00000     0.00000

             -0.03689   -0.00000    0.00000       -0.03689    0.00000    0.00000
             -0.00000    0.02873    0.00000        0.00000    0.02873    0.00000
              0.00000    0.00000    0.00816        0.00000    0.00000    0.00816

         MAIN DIRECTIONS OF THE EFG   1.0000 -0.0000  0.0000
                                      0.0000  1.0000  0.0000
                                      0.0000  0.0000  1.0000
:ANG003:  ANGLE WITH OLD X-AXIS =         0.0

:ETA003:                         ASYMM. ETA =     0.55774


       ATOMNUMBER=  4 Fe3        VCOUL-ZERO =  0.72508E+00
:EFG004:                        EFG         =     0.03707   *10**21  V / m**2
                               V20  TOT/SRF=    -0.02505    -0.05812
                               V22  TOT/SRF=    -0.02261    -0.05384
                               V22M TOT/SRF=     0.00000     0.00000
                               V21  TOT/SRF=     0.00000     0.00000
                               V21M TOT/SRF=     0.00000     0.00000

             -0.00814    0.00000    0.00000       -0.00814    0.00000    0.00000
              0.00000    0.03707    0.00000        0.00000    0.03707    0.00000
              0.00000    0.00000   -0.02892        0.00000    0.00000   -0.02892

         MAIN DIRECTIONS OF THE EFG   1.0000  0.0000  0.0000
                                      0.0000  1.0000  0.0000
                                      0.0000  0.0000  1.0000
:ANG004:  ANGLE WITH OLD X-AXIS =         0.0

:ETA004:                         ASYMM. ETA =     0.56060


       ATOMNUMBER=  5 Fe4        VCOUL-ZERO =  0.72508E+00
:EFG005:                        EFG         =     0.03707   *10**21  V / m**2
                               V20  TOT/SRF=    -0.02505    -0.05812
                               V22  TOT/SRF=    -0.02261    -0.05384
                               V22M TOT/SRF=     0.00000     0.00000
                               V21  TOT/SRF=     0.00000     0.00000
                               V21M TOT/SRF=     0.00000     0.00000

             -0.00814    0.00000    0.00000       -0.00814    0.00000    0.00000
              0.00000    0.03707    0.00000        0.00000    0.03707    0.00000
              0.00000    0.00000   -0.02892        0.00000    0.00000   -0.02892

         MAIN DIRECTIONS OF THE EFG   1.0000  0.0000  0.0000
                                      0.0000  1.0000  0.0000
                                      0.0000  0.0000  1.0000
:ANG005:  ANGLE WITH OLD X-AXIS =         0.0

:ETA005:                         ASYMM. ETA =     0.56060


       ATOMNUMBER=  6 Rh3        VCOUL-ZERO =  0.60988E+00
:EFG006:                        EFG         =    -0.03689   *10**21  V / m**2
                               V20  TOT/SRF=     0.00705     0.01758
                               V22  TOT/SRF=    -0.03282    -0.07710
                               V22M TOT/SRF=     0.00000     0.00000
                               V21  TOT/SRF=     0.00000     0.00000
                               V21M TOT/SRF=     0.00000     0.00000

             -0.03689    0.00000    0.00000       -0.03689    0.00000    0.00000
              0.00000    0.02875    0.00000        0.00000    0.02875    0.00000
              0.00000    0.00000    0.00814        0.00000    0.00000    0.00814

         MAIN DIRECTIONS OF THE EFG   1.0000  0.0000  0.0000
                                     -0.0000  1.0000  0.0000
                                      0.0000  0.0000  1.0000
:ANG006:  ANGLE WITH OLD X-AXIS =         0.0

:ETA006:                         ASYMM. ETA =     0.55866


     HELLMANN-FEYNMAN-FORCE IN mRy/a.u. = |F|  Fx       Fy             Fz
:FHF001:   1.ATOM      0.000000000127      0.000000000000      0.000000000000      0.000000000127

     HELLMANN-FEYNMAN-FORCE IN mRy/a.u. = |F|  Fx       Fy             Fz
:FHF002:   2.ATOM      0.000000000237      0.000000000000      0.000000000000      0.000000000237

     HELLMANN-FEYNMAN-FORCE IN mRy/a.u. = |F|  Fx       Fy             Fz
:FHF003:   3.ATOM      0.000000012587     -0.000000006992      0.000000010466      0.000000000000

     HELLMANN-FEYNMAN-FORCE IN mRy/a.u. = |F|  Fx       Fy             Fz
:FHF004:   4.ATOM      0.000000000168      0.000000000000      0.000000000000      0.000000000168

     HELLMANN-FEYNMAN-FORCE IN mRy/a.u. = |F|  Fx       Fy             Fz
:FHF005:   5.ATOM      0.000000000050      0.000000000000      0.000000000000     -0.000000000050

     HELLMANN-FEYNMAN-FORCE IN mRy/a.u. = |F|  Fx       Fy             Fz
:FHF006:   6.ATOM      0.000000016468     -0.000000002897     -0.000000016211      0.000000000000

:FIT001: LUSE= 13 SIGMA OF V-XC FIT FOR ATOM  1  0.3994427E-02
:FIT001: LUSE= 13 SIGMA OF V-XC FIT FOR ATOM  1  0.3006052E-02
:FIT002: LUSE= 13 SIGMA OF V-XC FIT FOR ATOM  2  0.3994427E-02
:FIT002: LUSE= 13 SIGMA OF V-XC FIT FOR ATOM  2  0.3006052E-02
:FIT003: LUSE= 13 SIGMA OF V-XC FIT FOR ATOM  3  0.1071406E-02
:FIT003: LUSE= 13 SIGMA OF V-XC FIT FOR ATOM  3  0.6602923E-03
:FIT004: LUSE= 13 SIGMA OF V-XC FIT FOR ATOM  4  0.3769645E-02
:FIT004: LUSE= 13 SIGMA OF V-XC FIT FOR ATOM  4  0.2961801E-02
:FIT005: LUSE= 13 SIGMA OF V-XC FIT FOR ATOM  5  0.3769645E-02
:FIT005: LUSE= 13 SIGMA OF V-XC FIT FOR ATOM  5  0.2961801E-02
:FIT006: LUSE= 13 SIGMA OF V-XC FIT FOR ATOM  6  0.9714846E-03
:FIT006: LUSE= 13 SIGMA OF V-XC FIT FOR ATOM  6  0.7372096E-03
:DEN  : DENSITY INTEGRAL  =        -19756.35349501   (Ry)
       ELS_POTENTIAL_AT Z=0 and Z=0.5:  -0.80919  -0.80919
       ELS_POTENTIAL_AT Y=0 and Y=0.5:  -0.36051  -0.36051
:VZERO:v0,v0c,v0x  -1.78444  -0.80919  -0.97525 v5,v5c,v5x  -1.78444  -0.80919  -0.97525
:VZERY:v0,v0c,v0x  -1.28794  -0.36051  -0.92744 v5,v5c,v5x  -1.28794  -0.36051  -0.92744
:VZERX:v0,v0c,v0x  -1.22326  -0.32063  -0.90263 v5,v5c,v5x  -1.22338  -0.32072  -0.90266
:LMAX-WF:   10   Non-Spherical LMAX:   4

          ATOMIC SPHERE DEPENDENT PARAMETERS FOR ATOM  Fe1       
:e__0001: OVERALL ENERGY PARAMETER IS    0.3000
          OVERALL BASIS SET ON ATOM IS LAPW
:E1_0001: E( 1)=    0.3000
             APW+lo
:E1_0001: E( 1)=   -3.0759   E(BOTTOM)=   -3.109   E(TOP)=   -3.043  1  2   184
             LOCAL ORBITAL
:E2_0001: E( 2)=    0.7024   E(BOTTOM)=    0.457   E(TOP)=    0.948  0  1   139
             APW+lo
:E0_0001: E( 0)=    0.3000
             APW+lo

          ATOMIC SPHERE DEPENDENT PARAMETERS FOR ATOM  Fe2       
:e__0002: OVERALL ENERGY PARAMETER IS    0.3000
          OVERALL BASIS SET ON ATOM IS LAPW
:E1_0002: E( 1)=    0.3000
             APW+lo
:E1_0002: E( 1)=   -3.0759   E(BOTTOM)=   -3.109   E(TOP)=   -3.043  1  2   184
             LOCAL ORBITAL
:E2_0002: E( 2)=    0.7024   E(BOTTOM)=    0.457   E(TOP)=    0.948  0  1   139
             APW+lo
:E0_0002: E( 0)=    0.3000
             APW+lo

          ATOMIC SPHERE DEPENDENT PARAMETERS FOR ATOM  Rh1       
:e__0003: OVERALL ENERGY PARAMETER IS    0.3000
          OVERALL BASIS SET ON ATOM IS LAPW
:E1_0003: E( 1)=    0.3000
             APW+lo
:E1_0003: E( 1)=   -2.7480   E(BOTTOM)=   -2.843   E(TOP)=   -2.653  2  3   182
             LOCAL ORBITAL
:E2_0003: E( 2)=    0.5349   E(BOTTOM)=    0.099   E(TOP)=    0.971  1  2   145
             APW+lo
:E0_0003: E( 0)=    0.3000
             APW+lo

          ATOMIC SPHERE DEPENDENT PARAMETERS FOR ATOM  Fe3       
:e__0004: OVERALL ENERGY PARAMETER IS    0.3000
          OVERALL BASIS SET ON ATOM IS LAPW
:E1_0004: E( 1)=    0.3000
             APW+lo
:E1_0004: E( 1)=   -3.0759   E(BOTTOM)=   -3.109   E(TOP)=   -3.043  1  2   186
             LOCAL ORBITAL
:E2_0004: E( 2)=    0.7024   E(BOTTOM)=    0.457   E(TOP)=    0.948  0  1   137
             APW+lo
:E0_0004: E( 0)=    0.3000
             APW+lo

          ATOMIC SPHERE DEPENDENT PARAMETERS FOR ATOM  Fe4       
:e__0005: OVERALL ENERGY PARAMETER IS    0.3000
          OVERALL BASIS SET ON ATOM IS LAPW
:E1_0005: E( 1)=    0.3000
             APW+lo
:E1_0005: E( 1)=   -3.0759   E(BOTTOM)=   -3.109   E(TOP)=   -3.043  1  2   186
             LOCAL ORBITAL
:E2_0005: E( 2)=    0.7024   E(BOTTOM)=    0.457   E(TOP)=    0.948  0  1   137
             APW+lo
:E0_0005: E( 0)=    0.3000
             APW+lo

          ATOMIC SPHERE DEPENDENT PARAMETERS FOR ATOM  Rh3       
:e__0006: OVERALL ENERGY PARAMETER IS    0.3000
          OVERALL BASIS SET ON ATOM IS LAPW
:E1_0006: E( 1)=    0.3000
             APW+lo
:E1_0006: E( 1)=   -2.7480   E(BOTTOM)=   -2.843   E(TOP)=   -2.653  2  3   178
             LOCAL ORBITAL
:E2_0006: E( 2)=    0.5348   E(BOTTOM)=    0.099   E(TOP)=    0.971  1  2   142
             APW+lo
:E0_0006: E( 0)=    0.3000
             APW+lo

       K=   0.00000   0.00000   0.00000            1
:RKM  : MATRIX SIZE   397LOs:  96  RKM= 6.91  WEIGHT= 1.00  PGR:    
       EIGENVALUES ARE:
:EIG00001:      -3.0764211   -3.0731401   -3.0708847   -3.0708795   -3.0708456
:EIG00006:      -3.0699534   -3.0675522   -3.0675471   -3.0668634   -3.0668582
:EIG00011:      -3.0634615   -3.0588788   -2.7581391   -2.7356389   -2.7315996
:EIG00016:      -2.7315952   -2.7296596   -2.7259649   -2.7259605   -2.7241984
:EIG00021:      -2.7241946   -2.7211943   -2.7132890   -2.7046801    0.1106575
:EIG00026:       0.2551614    0.3019924    0.3327405    0.3490079    0.3490085
:EIG00031:       0.3593950    0.3593967    0.3804005    0.4166173    0.4525460
:EIG00036:       0.4911840    0.4911895    0.5182266    0.5182340    0.5467258
:EIG00041:       0.5467286    0.5563066    0.5563135    0.5586522    0.5750870
:EIG00046:       0.5906401    0.5906403    0.6628500    0.6655630    0.6921172
 
:EIG00051:       0.7140596    0.7140616    0.7371883    0.7462097    0.7462114
:EIG00056:       0.7507768    0.7510942    0.7552321    0.7552361    0.7733195
:EIG00061:       0.7878826    0.7912454    0.8029355    0.8099358    0.8099373
:EIG00066:       0.8338364    0.8341492    0.8429932    0.8429991    0.8604594
:EIG00071:       0.8737396    1.3208907    1.3210709    1.3605046    1.3715534
:EIG00076:       1.3795783    1.8167929    1.8599671    1.8638111    1.8638158
:EIG00081:       1.9229645    1.9229704    1.9786925    1.9786952    1.9824043
:EIG00086:       1.9824069
       ********************************************************

:KPT   :      NUMBER OF K-POINTS:   310
:LMAX-WF:   10   Non-Spherical LMAX:   4

          ATOMIC SPHERE DEPENDENT PARAMETERS FOR ATOM  Fe1       
:e__0001: OVERALL ENERGY PARAMETER IS    0.3000
          OVERALL BASIS SET ON ATOM IS LAPW
:E1_0001: E( 1)=    0.3000
             APW+lo
:E1_0001: E( 1)=   -2.8909   E(BOTTOM)=   -2.925   E(TOP)=   -2.856  1  2   204
             LOCAL ORBITAL
:E2_0001: E( 2)=    0.6142   E(BOTTOM)=    0.614   E(TOP)= -200.000  0 -1    97
             APW+lo
:E0_0001: E( 0)=    0.3000
             APW+lo

          ATOMIC SPHERE DEPENDENT PARAMETERS FOR ATOM  Fe2       
:e__0002: OVERALL ENERGY PARAMETER IS    0.3000
          OVERALL BASIS SET ON ATOM IS LAPW
:E1_0002: E( 1)=    0.3000
             APW+lo
:E1_0002: E( 1)=   -2.8909   E(BOTTOM)=   -2.925   E(TOP)=   -2.856  1  2   204
             LOCAL ORBITAL
:E2_0002: E( 2)=    0.6142   E(BOTTOM)=    0.614   E(TOP)= -200.000  0 -1    97
             APW+lo
:E0_0002: E( 0)=    0.3000
             APW+lo

          ATOMIC SPHERE DEPENDENT PARAMETERS FOR ATOM  Rh1       
:e__0003: OVERALL ENERGY PARAMETER IS    0.3000
          OVERALL BASIS SET ON ATOM IS LAPW
:E1_0003: E( 1)=    0.3000
             APW+lo
:E1_0003: E( 1)=   -2.7468   E(BOTTOM)=   -2.841   E(TOP)=   -2.652  2  3   180
             LOCAL ORBITAL
:E2_0003: E( 2)=    0.5368   E(BOTTOM)=    0.101   E(TOP)=    0.972  1  2   142
             APW+lo
:E0_0003: E( 0)=    0.3000
             APW+lo

          ATOMIC SPHERE DEPENDENT PARAMETERS FOR ATOM  Fe3       
:e__0004: OVERALL ENERGY PARAMETER IS    0.3000
          OVERALL BASIS SET ON ATOM IS LAPW
:E1_0004: E( 1)=    0.3000
             APW+lo
:E1_0004: E( 1)=   -2.8909   E(BOTTOM)=   -2.925   E(TOP)=   -2.856  1  2   207
             LOCAL ORBITAL
:E2_0004: E( 2)=    0.6142   E(BOTTOM)=    0.614   E(TOP)= -200.000  0 -1   101
             APW+lo
:E0_0004: E( 0)=    0.3000
             APW+lo

          ATOMIC SPHERE DEPENDENT PARAMETERS FOR ATOM  Fe4       
:e__0005: OVERALL ENERGY PARAMETER IS    0.3000
          OVERALL BASIS SET ON ATOM IS LAPW
:E1_0005: E( 1)=    0.3000
             APW+lo
:E1_0005: E( 1)=   -2.8909   E(BOTTOM)=   -2.925   E(TOP)=   -2.856  1  2   207
             LOCAL ORBITAL
:E2_0005: E( 2)=    0.6142   E(BOTTOM)=    0.614   E(TOP)= -200.000  0 -1   101
             APW+lo
:E0_0005: E( 0)=    0.3000
             APW+lo

          ATOMIC SPHERE DEPENDENT PARAMETERS FOR ATOM  Rh3       
:e__0006: OVERALL ENERGY PARAMETER IS    0.3000
          OVERALL BASIS SET ON ATOM IS LAPW
:E1_0006: E( 1)=    0.3000
             APW+lo
:E1_0006: E( 1)=   -2.7468   E(BOTTOM)=   -2.841   E(TOP)=   -2.652  2  3   181
             LOCAL ORBITAL
:E2_0006: E( 2)=    0.5368   E(BOTTOM)=    0.101   E(TOP)=    0.972  1  2   136
             APW+lo
:E0_0006: E( 0)=    0.3000
             APW+lo

       K=   0.00000   0.00000   0.00000            1
:RKM  : MATRIX SIZE   397LOs:  96  RKM= 6.91  WEIGHT= 1.00  PGR:    
       EIGENVALUES ARE:
:EIG00001:      -2.8915223   -2.8893926   -2.8859382   -2.8859325   -2.8857380
:EIG00006:      -2.8854128   -2.8821436   -2.8821384   -2.8814190   -2.8814135
:EIG00011:      -2.8779218   -2.8729261   -2.7569009   -2.7342473   -2.7305160
:EIG00016:      -2.7305117   -2.7268146   -2.7243526   -2.7243489   -2.7230960
:EIG00021:      -2.7230925   -2.7190137   -2.7120104   -2.7037002    0.1578888
:EIG00026:       0.2704343    0.3314751    0.3616186    0.3749184    0.3749292
:EIG00031:       0.3860773    0.3937218    0.3937300    0.4786672    0.4841499
:EIG00036:       0.5171315    0.5171359    0.5403278    0.5403294    0.5514802
:EIG00041:       0.5514826    0.5668547    0.5668555    0.5888616    0.5997772
:EIG00046:       0.6663270    0.6817757    0.6817898    0.7911179    0.8027348
 
:EIG00051:       0.8039980    0.8077814    0.8277956    0.8434984    0.8736793
:EIG00056:       0.8736888    0.9093879    0.9093965    0.9113157    0.9223584
:EIG00061:       0.9223629    0.9241935    0.9242005    0.9639686    0.9756468
:EIG00066:       0.9785133    0.9788113    0.9884222    0.9884262    1.0106971
:EIG00071:       1.0562466    1.4104684    1.4119846    1.4198840    1.4319172
:EIG00076:       1.4328260    1.8519920    1.9017212    1.9724981    1.9725050
       ********************************************************

:KPT   :      NUMBER OF K-POINTS:   310
:GAP (global)   :    0.0    Ry =     0.0   eV (metal)
:GAP (this spin):    0.0    Ry =     0.0   eV (metal)
         Bandranges (emin - emax) and occupancy:
:BAN00058:  58    0.742278    0.788539  1.00000000
:BAN00059:  59    0.754908    0.793807  1.00000000
:BAN00060:  60    0.760337    0.800079  1.00000000
:BAN00061:  61    0.760340    0.819455  1.00002502
:BAN00062:  62    0.771421    0.826650  0.99971870
:BAN00063:  63    0.776871    0.826651  0.96600852
:BAN00064:  64    0.782293    0.834673  0.83149887
:BAN00065:  65    0.797193    0.944364  0.38617200
:BAN00066:  66    0.801762    0.946204  0.08345876
:BAN00067:  67    0.813611    1.007216  0.00517038
:BAN00068:  68    0.815150    1.007216  0.00032831
:BAN00069:  69    0.840797    1.235906  0.00000000
:BAN00070:  70    0.841951    1.273327  0.00000000
:BAN00071:  71    0.869141    1.303106  0.00000000
:BAN00072:  72    0.998890    1.327139  0.00000000
:BAN00073:  73    1.261789    1.491927  0.00000000
        Energy to separate low and high energystates:    0.06066


:NOE  : NUMBER OF ELECTRONS          =  116.000

:FER  : F E R M I - ENERGY(TETRAH.M.)=   0.8186344328
:GMA  : POTENTIAL AND CHARGE CUT-OFF  12.00 Ry**.5

:POS001: ATOM   -1 X,Y,Z = 0.00000 0.00000 0.00000  MULT= 1  ZZ= 26.000  Fe1       

       LMMAX 16
       LM=   0 0  1 0  2 0  2 2  3 0  3 2  4 0  4 2  4 4  5 0  5 2  5 4  6 0  6 2  6 4  6 6

:CHA001: TOTAL VALENCE CHARGE INSIDE SPHERE   1 =   7.2565    (RMT=  2.4300 )
:PCS001: PARTIAL CHARGES SPHERE =  1 S,P,D,F,PX,PY,PZ,D-Z2,D-X2Y2,D-XY,D-XZ,D-YZ 
:QTL001: 0.2313 3.2485 3.7446 0.0234 1.0832 1.0854 1.0799 0.7231 0.7806 0.7204 0.6950 0.8254
        Q-s-low E-s-low   Q-p-low E-p-low   Q-d-low E-d-low   Q-f-low E-f-low
:EPL001:  0.0003 -2.8034    2.9945 -3.0687    0.0008 -2.8041    0.0003 -2.8056
        Q-s-hi  E-s-hi    Q-p-hi  E-p-hi    Q-d-hi  E-d-hi    Q-f-hi  E-f-hi 
:EPH001:  0.2310  0.3872    0.2540  0.5267    3.7438  0.6982    0.0230  0.5882

                      VXX         VYY         VZZ       UP TO R
:VZZ001:             1.56428    -2.30853     0.74425       2.430

:POS002: ATOM   -2 X,Y,Z = 0.00000 0.00000 0.50000  MULT= 1  ZZ= 26.000  Fe2       

       LMMAX 16
       LM=   0 0  1 0  2 0  2 2  3 0  3 2  4 0  4 2  4 4  5 0  5 2  5 4  6 0  6 2  6 4  6 6

:CHA002: TOTAL VALENCE CHARGE INSIDE SPHERE   2 =   7.2565    (RMT=  2.4300 )
:PCS002: PARTIAL CHARGES SPHERE =  2 S,P,D,F,PX,PY,PZ,D-Z2,D-X2Y2,D-XY,D-XZ,D-YZ 
:QTL002: 0.2313 3.2485 3.7446 0.0234 1.0832 1.0854 1.0799 0.7231 0.7806 0.7204 0.6950 0.8254
        Q-s-low E-s-low   Q-p-low E-p-low   Q-d-low E-d-low   Q-f-low E-f-low
:EPL002:  0.0003 -2.8034    2.9945 -3.0687    0.0008 -2.8041    0.0003 -2.8056
        Q-s-hi  E-s-hi    Q-p-hi  E-p-hi    Q-d-hi  E-d-hi    Q-f-hi  E-f-hi 
:EPH002:  0.2310  0.3872    0.2540  0.5267    3.7438  0.6982    0.0230  0.5882

                      VXX         VYY         VZZ       UP TO R
:VZZ002:             1.56428    -2.30853     0.74425       2.430

:POS003: ATOM   -3 X,Y,Z = 0.00000 0.25000 0.25000  MULT= 2  ZZ= 45.000  Rh1       

       LMMAX 28
       LM=   0 0  1 1 -1 1  2 0  2 2 -2 2  3 1 -3 1  3 3 -3 3  4 0  4 2 -4 2  4 4 -4 4  5 1 -5 1
         5 3 -5 3  5 5 -5 5  6 0  6 2 -6 2  6 4 -6 4  6 6 -6 6

:CHA003: TOTAL VALENCE CHARGE INSIDE SPHERE   3 =   7.5616    (RMT=  2.4300 )
:PCS003: PARTIAL CHARGES SPHERE =  3 S,P,D,F,PX,PY,PZ,D-Z2,D-X2Y2,D-XY,D-XZ,D-YZ 
:QTL003: 0.2059 3.2010 4.1139 0.0312 1.0651 1.0692 1.0667 0.8560 0.7974 0.8507 0.7909 0.8190
        Q-s-low E-s-low   Q-p-low E-p-low   Q-d-low E-d-low   Q-f-low E-f-low
:EPL003:  0.0003 -2.8088    2.9809 -2.7285    0.0008 -2.8083    0.0004 -2.8110
        Q-s-hi  E-s-hi    Q-p-hi  E-p-hi    Q-d-hi  E-d-hi    Q-f-hi  E-f-hi 
:EPH003:  0.2056  0.3672    0.2201  0.5346    4.1131  0.5207    0.0308  0.5999

                      QXX         QXY         QYY         QZZ       UP TO R
:VZZ003:             1.60289     0.00000    -1.32795    -0.27494       2.430

:POS004: ATOM   -4 X,Y,Z = 0.50000 0.00000 0.25000  MULT= 1  ZZ= 26.000  Fe3       

       LMMAX 16
       LM=   0 0  1 0  2 0  2 2  3 0  3 2  4 0  4 2  4 4  5 0  5 2  5 4  6 0  6 2  6 4  6 6

:CHA004: TOTAL VALENCE CHARGE INSIDE SPHERE   4 =   7.2579    (RMT=  2.4300 )
:PCS004: PARTIAL CHARGES SPHERE =  4 S,P,D,F,PX,PY,PZ,D-Z2,D-X2Y2,D-XY,D-XZ,D-YZ 
:QTL004: 0.2313 3.2485 3.7460 0.0234 1.0832 1.0854 1.0799 0.7235 0.7812 0.7209 0.6949 0.8256
        Q-s-low E-s-low   Q-p-low E-p-low   Q-d-low E-d-low   Q-f-low E-f-low
:EPL004:  0.0003 -2.8034    2.9945 -3.0688    0.0008 -2.8041    0.0003 -2.8056
        Q-s-hi  E-s-hi    Q-p-hi  E-p-hi    Q-d-hi  E-d-hi    Q-f-hi  E-f-hi 
:EPH004:  0.2310  0.3873    0.2540  0.5267    3.7452  0.6982    0.0230  0.5882

                      VXX         VYY         VZZ       UP TO R
:VZZ004:             1.53724    -2.30135     0.76411       2.430

:POS005: ATOM   -5 X,Y,Z = 0.50000 0.00000 0.75000  MULT= 1  ZZ= 26.000  Fe4       

       LMMAX 16
       LM=   0 0  1 0  2 0  2 2  3 0  3 2  4 0  4 2  4 4  5 0  5 2  5 4  6 0  6 2  6 4  6 6

:CHA005: TOTAL VALENCE CHARGE INSIDE SPHERE   5 =   7.2579    (RMT=  2.4300 )
:PCS005: PARTIAL CHARGES SPHERE =  5 S,P,D,F,PX,PY,PZ,D-Z2,D-X2Y2,D-XY,D-XZ,D-YZ 
:QTL005: 0.2313 3.2485 3.7460 0.0234 1.0832 1.0854 1.0799 0.7235 0.7812 0.7209 0.6949 0.8256
        Q-s-low E-s-low   Q-p-low E-p-low   Q-d-low E-d-low   Q-f-low E-f-low
:EPL005:  0.0003 -2.8034    2.9945 -3.0688    0.0008 -2.8041    0.0003 -2.8056
        Q-s-hi  E-s-hi    Q-p-hi  E-p-hi    Q-d-hi  E-d-hi    Q-f-hi  E-f-hi 
:EPH005:  0.2310  0.3873    0.2540  0.5267    3.7452  0.6982    0.0230  0.5882

                      VXX         VYY         VZZ       UP TO R
:VZZ005:             1.53724    -2.30135     0.76411       2.430

:POS006: ATOM   -6 X,Y,Z = 0.50000 0.25000 0.50000  MULT= 2  ZZ= 45.000  Rh3       

       LMMAX 28
       LM=   0 0  1 1 -1 1  2 0  2 2 -2 2  3 1 -3 1  3 3 -3 3  4 0  4 2 -4 2  4 4 -4 4  5 1 -5 1
         5 3 -5 3  5 5 -5 5  6 0  6 2 -6 2  6 4 -6 4  6 6 -6 6

:CHA006: TOTAL VALENCE CHARGE INSIDE SPHERE   6 =   7.5615    (RMT=  2.4300 )
:PCS006: PARTIAL CHARGES SPHERE =  6 S,P,D,F,PX,PY,PZ,D-Z2,D-X2Y2,D-XY,D-XZ,D-YZ 
:QTL006: 0.2059 3.2010 4.1139 0.0312 1.0651 1.0692 1.0667 0.8560 0.7974 0.8508 0.7908 0.8190
        Q-s-low E-s-low   Q-p-low E-p-low   Q-d-low E-d-low   Q-f-low E-f-low
:EPL006:  0.0003 -2.8088    2.9809 -2.7285    0.0008 -2.8083    0.0004 -2.8110
        Q-s-hi  E-s-hi    Q-p-hi  E-p-hi    Q-d-hi  E-d-hi    Q-f-hi  E-f-hi 
:EPH006:  0.2056  0.3672    0.2201  0.5346    4.1131  0.5207    0.0308  0.5998

                      QXX         QXY         QYY         QZZ       UP TO R
:VZZ006:             1.60832    -0.00000    -1.34082    -0.26750       2.430

:CHA  : TOTAL VALENCE CHARGE INSIDE UNIT CELL =      64.272381

:SUM  : SUM OF EIGENVALUES =         -46.349024781

:GAP (global)   :    0.0    Ry =     0.0   eV (metal)
:GAP (this spin):    0.0    Ry =     0.0   eV (metal)
         Bandranges (emin - emax) and occupancy:
:BAN00044:  44    0.579220    0.683619  1.00000000
:BAN00045:  45    0.597902    0.739079  1.00000000
:BAN00046:  46    0.608636    0.793709  1.00000000
:BAN00047:  47    0.633823    0.794455  1.00000000
:BAN00048:  48    0.640219    0.794456  1.00000000
:BAN00049:  49    0.684752    0.801423  1.00000000
:BAN00050:  50    0.705151    0.824321  0.99469805
:BAN00051:  51    0.747925    0.827406  0.91772164
:BAN00052:  52    0.775434    0.844341  0.55582692
:BAN00053:  53    0.779076    0.865672  0.19743163
:BAN00054:  54    0.779205    0.869886  0.06194120
:BAN00055:  55    0.822566    0.893145  0.00000000
:BAN00056:  56    0.824773    0.893145  0.00000000
:BAN00057:  57    0.852399    0.920168  0.00000000
:BAN00058:  58    0.876278    0.938791  0.00000000
:BAN00059:  59    0.878517    0.956024  0.00000000
        Energy to separate low and high energystates:    0.10789


:NOE  : NUMBER OF ELECTRONS          =  116.000

:FER  : F E R M I - ENERGY(TETRAH.M.)=   0.8186344328
:GMA  : POTENTIAL AND CHARGE CUT-OFF  12.00 Ry**.5

:POS001: ATOM   -1 X,Y,Z = 0.00000 0.00000 0.00000  MULT= 1  ZZ= 26.000  Fe1       

       LMMAX 16
       LM=   0 0  1 0  2 0  2 2  3 0  3 2  4 0  4 2  4 4  5 0  5 2  5 4  6 0  6 2  6 4  6 6

:CHA001: TOTAL VALENCE CHARGE INSIDE SPHERE   1 =   4.3654    (RMT=  2.4300 )
:PCS001: PARTIAL CHARGES SPHERE =  1 S,P,D,F,PX,PY,PZ,D-Z2,D-X2Y2,D-XY,D-XZ,D-YZ 
:QTL001: 0.2160 3.2071 0.9194 0.0167 1.0748 1.0780 1.0543 0.2324 0.1425 0.2261 0.1717 0.1466
        Q-s-low E-s-low   Q-p-low E-p-low   Q-d-low E-d-low   Q-f-low E-f-low
:EPL001:  0.0003 -2.7671    2.9940 -2.8835    0.0008 -2.7645    0.0003 -2.7643
        Q-s-hi  E-s-hi    Q-p-hi  E-p-hi    Q-d-hi  E-d-hi    Q-f-hi  E-f-hi 
:EPH001:  0.2157  0.4594    0.2131  0.5667    0.9186  0.6919    0.0164  0.5630

                      VXX         VYY         VZZ       UP TO R
:VZZ001:            -1.49830     0.22342     1.27489       2.430

:POS002: ATOM   -2 X,Y,Z = 0.00000 0.00000 0.50000  MULT= 1  ZZ= 26.000  Fe2       

       LMMAX 16
       LM=   0 0  1 0  2 0  2 2  3 0  3 2  4 0  4 2  4 4  5 0  5 2  5 4  6 0  6 2  6 4  6 6

:CHA002: TOTAL VALENCE CHARGE INSIDE SPHERE   2 =   4.3654    (RMT=  2.4300 )
:PCS002: PARTIAL CHARGES SPHERE =  2 S,P,D,F,PX,PY,PZ,D-Z2,D-X2Y2,D-XY,D-XZ,D-YZ 
:QTL002: 0.2160 3.2071 0.9194 0.0167 1.0748 1.0780 1.0543 0.2324 0.1425 0.2261 0.1717 0.1466
        Q-s-low E-s-low   Q-p-low E-p-low   Q-d-low E-d-low   Q-f-low E-f-low
:EPL002:  0.0003 -2.7671    2.9940 -2.8835    0.0008 -2.7645    0.0003 -2.7643
        Q-s-hi  E-s-hi    Q-p-hi  E-p-hi    Q-d-hi  E-d-hi    Q-f-hi  E-f-hi 
:EPH002:  0.2157  0.4594    0.2131  0.5667    0.9186  0.6919    0.0164  0.5630

                      VXX         VYY         VZZ       UP TO R
:VZZ002:            -1.49830     0.22342     1.27489       2.430

:POS003: ATOM   -3 X,Y,Z = 0.00000 0.25000 0.25000  MULT= 2  ZZ= 45.000  Rh1       

       LMMAX 28
       LM=   0 0  1 1 -1 1  2 0  2 2 -2 2  3 1 -3 1  3 3 -3 3  4 0  4 2 -4 2  4 4 -4 4  5 1 -5 1
         5 3 -5 3  5 5 -5 5  6 0  6 2 -6 2  6 4 -6 4  6 6 -6 6

:CHA003: TOTAL VALENCE CHARGE INSIDE SPHERE   3 =   7.4244    (RMT=  2.4300 )
:PCS003: PARTIAL CHARGES SPHERE =  3 S,P,D,F,PX,PY,PZ,D-Z2,D-X2Y2,D-XY,D-XZ,D-YZ 
:QTL003: 0.2182 3.2069 3.9697 0.0228 1.0653 1.0767 1.0649 0.8187 0.7742 0.7946 0.7960 0.7862
        Q-s-low E-s-low   Q-p-low E-p-low   Q-d-low E-d-low   Q-f-low E-f-low
:EPL003:  0.0003 -2.7715    2.9811 -2.7273    0.0009 -2.7687    0.0004 -2.7691
        Q-s-hi  E-s-hi    Q-p-hi  E-p-hi    Q-d-hi  E-d-hi    Q-f-hi  E-f-hi 
:EPH003:  0.2179  0.4086    0.2258  0.5824    3.9688  0.5102    0.0224  0.5767

                      QXX         QXY         QYY         QZZ       UP TO R
:VZZ003:             3.91046     0.00000    -3.91095     0.00050       2.430

:POS004: ATOM   -4 X,Y,Z = 0.50000 0.00000 0.25000  MULT= 1  ZZ= 26.000  Fe3       

       LMMAX 16
       LM=   0 0  1 0  2 0  2 2  3 0  3 2  4 0  4 2  4 4  5 0  5 2  5 4  6 0  6 2  6 4  6 6

:CHA004: TOTAL VALENCE CHARGE INSIDE SPHERE   4 =   4.3656    (RMT=  2.4300 )
:PCS004: PARTIAL CHARGES SPHERE =  4 S,P,D,F,PX,PY,PZ,D-Z2,D-X2Y2,D-XY,D-XZ,D-YZ 
:QTL004: 0.2160 3.2071 0.9196 0.0167 1.0748 1.0780 1.0543 0.2329 0.1427 0.2262 0.1713 0.1465
        Q-s-low E-s-low   Q-p-low E-p-low   Q-d-low E-d-low   Q-f-low E-f-low
:EPL004:  0.0003 -2.7671    2.9940 -2.8835    0.0008 -2.7645    0.0003 -2.7643
        Q-s-hi  E-s-hi    Q-p-hi  E-p-hi    Q-d-hi  E-d-hi    Q-f-hi  E-f-hi 
:EPH004:  0.2157  0.4594    0.2131  0.5667    0.9188  0.6919    0.0164  0.5630

                      VXX         VYY         VZZ       UP TO R
:VZZ004:            -1.48294     0.20645     1.27649       2.430

:POS005: ATOM   -5 X,Y,Z = 0.50000 0.00000 0.75000  MULT= 1  ZZ= 26.000  Fe4       

       LMMAX 16
       LM=   0 0  1 0  2 0  2 2  3 0  3 2  4 0  4 2  4 4  5 0  5 2  5 4  6 0  6 2  6 4  6 6

:CHA005: TOTAL VALENCE CHARGE INSIDE SPHERE   5 =   4.3656    (RMT=  2.4300 )
:PCS005: PARTIAL CHARGES SPHERE =  5 S,P,D,F,PX,PY,PZ,D-Z2,D-X2Y2,D-XY,D-XZ,D-YZ 
:QTL005: 0.2160 3.2071 0.9196 0.0167 1.0748 1.0780 1.0543 0.2329 0.1427 0.2262 0.1713 0.1465
        Q-s-low E-s-low   Q-p-low E-p-low   Q-d-low E-d-low   Q-f-low E-f-low
:EPL005:  0.0003 -2.7671    2.9940 -2.8835    0.0008 -2.7645    0.0003 -2.7643
        Q-s-hi  E-s-hi    Q-p-hi  E-p-hi    Q-d-hi  E-d-hi    Q-f-hi  E-f-hi 
:EPH005:  0.2157  0.4594    0.2131  0.5667    0.9188  0.6919    0.0164  0.5630

                      VXX         VYY         VZZ       UP TO R
:VZZ005:            -1.48294     0.20645     1.27649       2.430

:POS006: ATOM   -6 X,Y,Z = 0.50000 0.25000 0.50000  MULT= 2  ZZ= 45.000  Rh3       

       LMMAX 28
       LM=   0 0  1 1 -1 1  2 0  2 2 -2 2  3 1 -3 1  3 3 -3 3  4 0  4 2 -4 2  4 4 -4 4  5 1 -5 1
         5 3 -5 3  5 5 -5 5  6 0  6 2 -6 2  6 4 -6 4  6 6 -6 6

:CHA006: TOTAL VALENCE CHARGE INSIDE SPHERE   6 =   7.4244    (RMT=  2.4300 )
:PCS006: PARTIAL CHARGES SPHERE =  6 S,P,D,F,PX,PY,PZ,D-Z2,D-X2Y2,D-XY,D-XZ,D-YZ 
:QTL006: 0.2182 3.2068 3.9698 0.0228 1.0653 1.0767 1.0648 0.8186 0.7741 0.7947 0.7960 0.7864
        Q-s-low E-s-low   Q-p-low E-p-low   Q-d-low E-d-low   Q-f-low E-f-low
:EPL006:  0.0003 -2.7715    2.9811 -2.7273    0.0009 -2.7687    0.0004 -2.7691
        Q-s-hi  E-s-hi    Q-p-hi  E-p-hi    Q-d-hi  E-d-hi    Q-f-hi  E-f-hi 
:EPH006:  0.2178  0.4086    0.2257  0.5824    3.9689  0.5102    0.0224  0.5767

                      QXX         QXY         QYY         QZZ       UP TO R
:VZZ006:             3.91161    -0.00000    -3.92205     0.01044       2.430

:CHA  : TOTAL VALENCE CHARGE INSIDE UNIT CELL =      51.727619

:SUM  : SUM OF EIGENVALUES =         -52.540627011


        1.ATOM      Fe1                   5 CORE STATES
       CORE-FORCE in mRy/a.u. = |F|      Fx             Fy             Fz
:FCO001:   1.ATOM      0.000000001406      0.000000000000      0.000000000000     -0.000000001406

:1S 001: 1S                -512.826533707 Ry
:2S 001: 2S                 -58.775526254 Ry
:2PP001: 2P*                -50.468549348 Ry
:2P 001: 2P                 -49.551941008 Ry
:3S 001: 3S                  -5.556251544 Ry

        2.ATOM      Fe2                   5 CORE STATES
       CORE-FORCE in mRy/a.u. = |F|      Fx             Fy             Fz
:FCO002:   2.ATOM      0.000000002474      0.000000000000      0.000000000000      0.000000002474

:1S 002: 1S                -512.826533707 Ry
:2S 002: 2S                 -58.775526254 Ry
:2PP002: 2P*                -50.468549348 Ry
:2P 002: 2P                 -49.551941008 Ry
:3S 002: 3S                  -5.556251544 Ry

        3.ATOM      Rh1                  10 CORE STATES
       CORE-FORCE in mRy/a.u. = |F|      Fx             Fy             Fz
:FCO003:   3.ATOM      0.000000021439      0.000000019209     -0.000000009521      0.000000000000

:1S 003: 1S               -1691.402025284 Ry
:2S 003: 2S                -244.311280744 Ry
:2PP003: 2P*               -226.119497389 Ry
:2P 003: 2P                -215.490691051 Ry
:3S 003: 3S                 -42.849752611 Ry
:3PP003: 3P*                -35.731617523 Ry
:3P 003: 3P                 -33.903245273 Ry
:3DD003: 3D*                -21.305951390 Ry
:3D 003: 3D                 -20.945389189 Ry
:4S 003: 4S                  -5.086157152 Ry

        4.ATOM      Fe3                   5 CORE STATES
       CORE-FORCE in mRy/a.u. = |F|      Fx             Fy             Fz
:FCO004:   4.ATOM      0.000000000002      0.000000000000      0.000000000000      0.000000000002

:1S 004: 1S                -512.826538621 Ry
:2S 004: 2S                 -58.775532101 Ry
:2PP004: 2P*                -50.468555279 Ry
:2P 004: 2P                 -49.551946937 Ry
:3S 004: 3S                  -5.556254956 Ry

        5.ATOM      Fe4                   5 CORE STATES
       CORE-FORCE in mRy/a.u. = |F|      Fx             Fy             Fz
:FCO005:   5.ATOM      0.000000000007      0.000000000000      0.000000000000      0.000000000007

:1S 005: 1S                -512.826538621 Ry
:2S 005: 2S                 -58.775532101 Ry
:2PP005: 2P*                -50.468555279 Ry
:2P 005: 2P                 -49.551946937 Ry
:3S 005: 3S                  -5.556254956 Ry

        6.ATOM      Rh3                  10 CORE STATES
       CORE-FORCE in mRy/a.u. = |F|      Fx             Fy             Fz
:FCO006:   6.ATOM      0.000000001161      0.000000001069     -0.000000000452      0.000000000000

:1S 006: 1S               -1691.402022373 Ry
:2S 006: 2S                -244.311284613 Ry
:2PP006: 2P*               -226.119501605 Ry
:2P 006: 2P                -215.490695328 Ry
:3S 006: 3S                 -42.849757432 Ry
:3PP006: 3P*                -35.731622394 Ry
:3P 006: 3P                 -33.903250137 Ry
:3DD006: 3D*                -21.305956259 Ry
:3D 006: 3D                 -20.945394054 Ry
:4S 006: 4S                  -5.086164002 Ry

        1.ATOM      Fe1                   5 CORE STATES
       CORE-FORCE in mRy/a.u. = |F|      Fx             Fy             Fz
:FCO001:   1.ATOM      0.000000000797      0.000000000000      0.000000000000      0.000000000797

:1S 001: 1S                -512.825760406 Ry
:2S 001: 2S                 -58.693994469 Ry
:2PP001: 2P*                -50.407786737 Ry
:2P 001: 2P                 -49.489409540 Ry
:3S 001: 3S                  -5.367450309 Ry

        2.ATOM      Fe2                   5 CORE STATES
       CORE-FORCE in mRy/a.u. = |F|      Fx             Fy             Fz
:FCO002:   2.ATOM      0.000000002313      0.000000000000      0.000000000000      0.000000002313

:1S 002: 1S                -512.825760406 Ry
:2S 002: 2S                 -58.693994469 Ry
:2PP002: 2P*                -50.407786737 Ry
:2P 002: 2P                 -49.489409540 Ry
:3S 002: 3S                  -5.367450309 Ry

        3.ATOM      Rh1                  10 CORE STATES
       CORE-FORCE in mRy/a.u. = |F|      Fx             Fy             Fz
:FCO003:   3.ATOM      0.000000003598      0.000000002458      0.000000002627      0.000000000000

:1S 003: 1S               -1691.402022657 Ry
:2S 003: 2S                -244.311260793 Ry
:2PP003: 2P*               -226.119481676 Ry
:2P 003: 2P                -215.490674394 Ry
:3S 003: 3S                 -42.849636494 Ry
:3PP003: 3P*                -35.731503331 Ry
:3P 003: 3P                 -33.903123837 Ry
:3DD003: 3D*                -21.305840667 Ry
:3D 003: 3D                 -20.945276322 Ry
:4S 003: 4S                  -5.085228785 Ry

        4.ATOM      Fe3                   5 CORE STATES
       CORE-FORCE in mRy/a.u. = |F|      Fx             Fy             Fz
:FCO004:   4.ATOM      0.000000000011      0.000000000000      0.000000000000     -0.000000000011

:1S 004: 1S                -512.825765335 Ry
:2S 004: 2S                 -58.694000328 Ry
:2PP004: 2P*                -50.407792691 Ry
:2P 004: 2P                 -49.489415491 Ry
:3S 004: 3S                  -5.367460002 Ry

        5.ATOM      Fe4                   5 CORE STATES
       CORE-FORCE in mRy/a.u. = |F|      Fx             Fy             Fz
:FCO005:   5.ATOM      0.000000000002      0.000000000000      0.000000000000      0.000000000002

:1S 005: 1S                -512.825765335 Ry
:2S 005: 2S                 -58.694000328 Ry
:2PP005: 2P*                -50.407792691 Ry
:2P 005: 2P                 -49.489415491 Ry
:3S 005: 3S                  -5.367460002 Ry

        6.ATOM      Rh3                  10 CORE STATES
       CORE-FORCE in mRy/a.u. = |F|      Fx             Fy             Fz
:FCO006:   6.ATOM      0.000000001169      0.000000001084     -0.000000000437      0.000000000000

:1S 006: 1S               -1691.402019746 Ry
:2S 006: 2S                -244.311264664 Ry
:2PP006: 2P*               -226.119485893 Ry
:2P 006: 2P                -215.490678672 Ry
:3S 006: 3S                 -42.849641319 Ry
:3PP006: 3P*                -35.731508205 Ry
:3P 006: 3P                 -33.903128705 Ry
:3DD006: 3D*                -21.305845540 Ry
:3D 006: 3D                 -20.945281192 Ry
:4S 006: 4S                  -5.085228653 Ry
:CINT001 Core Integral Atom   1 Up    5.999604 Dn   5.999581 Total  11.999185
:CINT002 Core Integral Atom   2 Up    5.999604 Dn   5.999581 Total  11.999185
:CINT003 Core Integral Atom   3 Up   14.998710 Dn  14.998714 Total  29.997424
:CINT004 Core Integral Atom   4 Up    5.999605 Dn   5.999580 Total  11.999184
:CINT005 Core Integral Atom   5 Up    5.999605 Dn   5.999580 Total  11.999184
:CINT006 Core Integral Atom   6 Up   14.998709 Dn  14.998715 Total  29.997424

       DENSITY AT NUCLEUS
        JATOM        VALENCE       SEMI-CORE          CORE           TOTAL
:RTO001:   1        6.553492        0.000000    15301.442132    15307.995624
:RTO002:   2        6.553492        0.000000    15301.442132    15307.995624
:RTO003:   3       23.243948        0.000000   129453.698647   129476.942596
:RTO004:   4        6.960009        0.000000    16256.631174    16263.591183
:RTO005:   5        6.960009        0.000000    16256.631174    16263.591183
:RTO006:   6       27.878697        0.000000   155312.221216   155340.099913

       HYPERFINE FIELDS FOR THOMSON RADIUS
:HFF001:          124.621           0.000        -279.492        -154.871 (KGAUSS)
:HFF002:          124.621           0.000        -279.492        -154.871 (KGAUSS)
:HFF003:         -225.180           0.000         -11.658        -236.838 (KGAUSS)
:HFF004:          124.758           0.000        -279.259        -154.501 (KGAUSS)
:HFF005:          124.758           0.000        -279.259        -154.501 (KGAUSS)
:HFF006:         -224.383           0.000         -12.060        -236.443 (KGAUSS)
     
       CHARGES OF NEW CHARGE DENSITY
:NTO   : INTERSTITIAL     UP =     4.997247 DN =     4.567769 TOT =     9.565017
:NPC   : PW Pseudocharge  UP =    12.205411 DN =    10.541266 TOT =    22.746677
:NTO001: CHARGE SPHERE  1 UP =    13.256072 DN =    10.364993 TOT =    23.621065
:NTO002: CHARGE SPHERE  2 UP =    13.256072 DN =    10.364993 TOT =    23.621066
:NTO003: CHARGE SPHERE  3 UP =    22.560278 DN =    22.423114 TOT =    44.983392
:NTO004: CHARGE SPHERE  4 UP =    13.257551 DN =    10.365226 TOT =    23.622778
:NTO005: CHARGE SPHERE  5 UP =    13.257551 DN =    10.365226 TOT =    23.622778
:NTO006: CHARGE SPHERE  6 UP =    22.560256 DN =    22.423151 TOT =    44.983407

:NEC01: NUCLEAR AND ELECTRONIC CHARGE    284.00000   283.98630
     
       CHARGES OF OLD CHARGE DENSITY
:OTO   : INTERSTITIAL     UP =     4.632783 DN =     3.613365 TOT =     8.246148
:OPC   : PW Pseudocharge  UP =    21.120480 DN =    16.647566 TOT =    37.768046
:OTO001: CHARGE SPHERE  1 UP =    13.983495 DN =    11.331173 TOT =    25.314668
:OTO002: CHARGE SPHERE  2 UP =    13.983495 DN =    11.331173 TOT =    25.314668
:OTO003: CHARGE SPHERE  3 UP =    21.859387 DN =    21.766362 TOT =    43.625750
:OTO004: CHARGE SPHERE  4 UP =    13.983489 DN =    11.331169 TOT =    25.314658
:OTO005: CHARGE SPHERE  5 UP =    13.983489 DN =    11.331169 TOT =    25.314658
:OTO006: CHARGE SPHERE  6 UP =    21.859380 DN =    21.766356 TOT =    43.625735

:NEC02: NUCLEAR AND ELECTRONIC CHARGE    284.00000   284.00777
     
       CONVERGENCE TEST
:DTO001: DIFFERENCE SPHERE  1 UP =  0.8598919 DN =  1.2208275 TOT =  2.0807194
:DTO002: DIFFERENCE SPHERE  2 UP =  0.8598919 DN =  1.2208274 TOT =  2.0807192
:DTO003: DIFFERENCE SPHERE  3 UP =  0.5192394 DN =  0.4240755 TOT =  0.9433149
:DTO004: DIFFERENCE SPHERE  4 UP =  0.8582480 DN =  1.2206450 TOT =  2.0788930
:DTO005: DIFFERENCE SPHERE  5 UP =  0.8582480 DN =  1.2206450 TOT =  2.0788930
:DTO006: DIFFERENCE SPHERE  6 UP =  0.5192235 DN =  0.4241407 TOT =  0.9433642

:DIS  :  CHARGE DISTANCE       ( 1.2208275 for atom    1 spin 2)      3.0231457
 PW Mixed is          702
 
******************************************************
* MULTISECANT MIXING VER9 RELEASE 10.4.0              *
* Standard Mode with controls                        *
* Fixed density scale                                *
* Regularization       1.000E-04                     *
* Trust Upper Limit    5.000E+00                     *
* Max Number of Memory Steps    8                    *
******************************************************
 
:PWTMP   2.3530E+02  9.1833E+02  7.1614E+02
:PLANE:  PW TOTAL      6.0027 DISTAN   3.62E+00  6.03E+01 %
:CHARG:  CLM/ATOM    149.9579 DISTAN   5.50E-01  3.67E-01 %
INFO: Reducing dbase  2.50000E-02 3.02315E+00 1.43784E-02
 
Step History
        DMIX         DMIXT        Red     Pred      Trust     Lambda    MagRel    MagAbs     Beta
  1   3.5000E-02   3.5000E-02 -1.00E+00  1.00E+00 -1.00E+01  1.00E+00  3.50E-02  3.50E-02  1.00E+00
:INFO :  Note, Pratt in use
INFO: Reducing dbase  1.43784E-02 3.02315E+00 8.26953E-03
:TRUST:  Step 1.57E-02  Charge 7.50E-02 (e) CTO  2.50E-01 (e) PW  3.50E-01 (e)
:DIRM :  MEMORY  0/ 8 SCALE   1.000
Performing Pseudo Compensation
Final Pseudo Compensation Rescaling     9.98907E-01
Final Pseudo Compensation Rescaling     9.98127E-01
:MIX  :   PRATT  REGULARIZATION:  1.00E-04 GREED: 0.01047                  
     
       CHARGES OF MIXED CHARGE DENSITY
:CTO   : INTERSTITIAL     UP =     4.632356 DN =     3.620060 TOT =     8.252416
:CPC   : PW Pseudocharge  UP =    15.249403 DN =    12.242816 TOT =    27.492218
:CTO001: CHARGE SPHERE  1 UP =    13.975877 DN =    11.321054 TOT =    25.296931
:CTO002: CHARGE SPHERE  2 UP =    13.975877 DN =    11.321054 TOT =    25.296931
:CTO003: CHARGE SPHERE  3 UP =    21.866728 DN =    21.773241 TOT =    43.639969
:CTO004: CHARGE SPHERE  4 UP =    13.975886 DN =    11.321052 TOT =    25.296938
:CTO005: CHARGE SPHERE  5 UP =    13.975886 DN =    11.321052 TOT =    25.296938
:CTO006: CHARGE SPHERE  6 UP =    21.866720 DN =    21.773234 TOT =    43.639954

       SPIN MAGNETIC MOMENTS OF MIXED CHARGE DENSITY
:MMINT:  MAGNETIC MOMENT IN INTERSTITIAL  =    1.01230
:MMI001: MAGNETIC MOMENT IN SPHERE   1    =    2.65482
:MMI002: MAGNETIC MOMENT IN SPHERE   2    =    2.65482
:MMI003: MAGNETIC MOMENT IN SPHERE   3    =    0.09349
:MMI004: MAGNETIC MOMENT IN SPHERE   4    =    2.65483
:MMI005: MAGNETIC MOMENT IN SPHERE   5    =    2.65483
:MMI006: MAGNETIC MOMENT IN SPHERE   6    =    0.09349
:MMTOT:  SPIN MAGNETIC MOMENT IN CELL     =   12.00555

:NEC03: NUCLEAR AND ELECTRONIC CHARGE    284.00000   284.00000

PW CHANGE     H    K    L             Current                    Change               Residue
:PUP001:      0    0    0  2.77623638E-02 0.00000000E+00 -8.165E-03  0.000E+00 -1.187E-02  0.000E+00
:PUP004:      0   -2    0 -5.55358737E-03-1.80249658E-18  7.257E-04 -1.802E-18  1.840E-03  0.000E+00
:PUP005:      0    0    2  5.21157326E-08-2.17038479E-20 -4.261E-07 -2.170E-20 -8.680E-07  0.000E+00
:PUP006:      0    0   -2  5.21157326E-08 2.17038479E-20 -4.261E-07  2.170E-20 -8.680E-07  0.000E+00
:PUP007:     -1    0    0 -1.04034588E-06-7.46159299E-19  1.447E-06 -7.462E-19  2.123E-06  0.000E+00
:PUP008:      0   -2    2 -1.04124643E-06 7.46080014E-19  1.447E-06  7.461E-19  2.037E-06  0.000E+00
:PUP009:      0   -2   -2 -1.04124643E-06-7.46587466E-19  1.447E-06 -7.466E-19  2.037E-06  0.000E+00
:PUP016:     -1   -2    0  3.90618838E-08 1.06374966E-19 -9.946E-07  1.064E-19 -1.101E-06  0.000E+00
:PUP017:     -1    0    2 -2.19514084E-03 1.05911587E-19  8.859E-04  1.059E-19  2.008E-03  0.000E+00
:PUP018:     -1    0   -2 -2.19514084E-03-2.11883297E-19  8.859E-04 -2.119E-19  2.008E-03  0.000E+00
:PUP019:     -1   -2    2  5.87708692E-03 2.16495776E-19 -1.848E-02  2.165E-19 -2.432E-02  0.000E+00
:PUP020:     -1   -2   -2  5.87708692E-03 6.91203121E-18 -1.848E-02  6.912E-18 -2.432E-02  0.000E+00
  
:PDN001:      0    0    0  2.21505023E-02 0.00000000E+00 -6.115E-03  0.000E+00 -7.137E-03  0.000E+00
:PDN004:      0   -2    0 -1.05525786E-02-1.86999848E-18  4.749E-03 -1.870E-18  7.297E-03  0.000E+00
:PDN005:      0    0    2  8.49444930E-08-1.43156359E-19 -5.868E-07 -1.432E-19 -1.106E-06  0.000E+00
:PDN006:      0    0   -2  8.49444930E-08 1.43156359E-19 -5.868E-07  1.432E-19 -1.106E-06  0.000E+00
:PDN007:     -1    0    0 -7.59389364E-07-5.68538256E-19  1.431E-06 -5.685E-19  1.648E-06  0.000E+00
:PDN008:      0   -2    2 -7.51712077E-07 5.68427275E-19  1.439E-06  5.684E-19  2.381E-06  0.000E+00
:PDN009:      0   -2   -2 -7.51712077E-07-5.68995484E-19  1.439E-06 -5.690E-19  2.381E-06  0.000E+00
:PDN016:     -1   -2    0  5.24180823E-08 4.50905639E-19 -1.429E-06  4.509E-19 -2.325E-06  0.000E+00
:PDN017:     -1    0    2 -3.09270101E-03 4.50370067E-19  3.727E-03  4.504E-19  4.675E-03  0.000E+00
:PDN018:     -1    0   -2 -3.09270101E-03-9.00826059E-19  3.727E-03 -9.008E-19  4.675E-03  0.000E+00
:PDN019:     -1   -2    2  5.00278088E-03 7.93548308E-19 -1.428E-02  7.935E-19 -1.985E-02  0.000E+00
:PDN020:     -1   -2   -2  5.00278088E-03 5.96530328E-18 -1.428E-02  5.965E-18 -1.985E-02  0.000E+00

:ENE  : ********** TOTAL ENERGY IN Ry =       -48465.14380311

       TOTAL FORCE IN mRy/a.u. = |F|     Fx             Fy             Fz     with/without FOR in case.in2
:FOR001:   1.ATOM          0.000          0.000          0.000         -0.000 partial forces
:FOR002:   2.ATOM          0.000          0.000          0.000          0.000 partial forces
:FOR003:   3.ATOM          0.000          0.000          0.000          0.000 partial forces
:FOR004:   4.ATOM          0.000          0.000          0.000          0.000 partial forces
:FOR005:   5.ATOM          0.000          0.000          0.000         -0.000 partial forces
:FOR006:   6.ATOM          0.000         -0.000         -0.000          0.000 partial forces
       TOTAL FORCE WITH RESPECT TO GLOBAL CARTESIAN COORDINATES:
:FCA001:   1.ATOM                         0.000          0.000         -0.000 partial forces
:FCA002:   2.ATOM                         0.000          0.000          0.000 partial forces
:FCA003:   3.ATOM                         0.000          0.000          0.000 partial forces
:FCA004:   4.ATOM                         0.000          0.000          0.000 partial forces
:FCA005:   5.ATOM                         0.000          0.000         -0.000 partial forces
:FCA006:   6.ATOM                         0.000         -0.000         -0.000 partial forces
       TOTAL FORCE WITH RESPECT TO THE GLOBAL COORDINATE SYSTEM:
:FGL001:   1.ATOM                 0.000000000     0.000000000    -0.000000000 partial forces
:FGL002:   2.ATOM                 0.000000000     0.000000000     0.000000003 partial forces
:FGL003:   3.ATOM                 0.000000000     0.000000004     0.000000007 partial forces
:FGL004:   4.ATOM                 0.000000000     0.000000000     0.000000000 partial forces
:FGL005:   5.ATOM                 0.000000000     0.000000000    -0.000000000 partial forces
:FGL006:   6.ATOM                 0.000000000    -0.000000002    -0.000000017 partial forces
 Flat Integration
 New Mode for Coulomb Integral
 Consistent 3/8+Simpson combinations
 Extension of core to zero
 LDM version in phi
 Fifth-order quadrature in outwin


            ---------
:ITE002:  2. ITERATION
            ---------

:NATO :    6 INDEPENDENT AND    8 TOTAL ATOMS IN UNITCELL
       SUBSTANCE: FeRh                                                        

       LATTICE                      = CYZ 
:POT  : POTENTIAL OPTION EX_PBE EC_PBE VX_PBE VC_PBE
:LAT  : LATTICE CONSTANTS=  5.63611 15.94133 15.94133    1.571    1.571    1.571
:VOL  : UNIT CELL VOLUME =     716.14069
       MODE OF CALCULATION IS       = RELA
       SPINPOLARIZED CALCULATION
:IFFT  : FFT-parameters:   48  128  128 Factor: 2.00


   CONVERGENCE PARAMETER FOR PSEUDOCHARGE: NCON=  9
   MAXIMAL VALUE OF RMT(JATOM)*ABSK(NKK) : RK  =29.11372


:VKCOUL :  VK-COUL convergence: 0.965E-09
       ATOMNUMBER=  1 Fe1        VCOUL-ZERO =  0.68967E+00
:EFG001:                        EFG         =     0.00436   *10**21  V / m**2
                               V20  TOT/SRF=    -0.00111    -0.05194
                               V22  TOT/SRF=    -0.00371    -0.04579
                               V22M TOT/SRF=     0.00000     0.00000
                               V21  TOT/SRF=     0.00000     0.00000
                               V21M TOT/SRF=     0.00000     0.00000

             -0.00307    0.00000    0.00000       -0.00307    0.00000    0.00000
              0.00000    0.00436    0.00000        0.00000    0.00436    0.00000
              0.00000    0.00000   -0.00129        0.00000    0.00000   -0.00129

         MAIN DIRECTIONS OF THE EFG   1.0000  0.0000  0.0000
                                      0.0000  1.0000  0.0000
                                      0.0000  0.0000  1.0000
:ANG001:  ANGLE WITH OLD X-AXIS =         0.0

:ETA001:                         ASYMM. ETA =     0.40955


       ATOMNUMBER=  2 Fe2        VCOUL-ZERO =  0.68967E+00
:EFG002:                        EFG         =     0.00436   *10**21  V / m**2
                               V20  TOT/SRF=    -0.00111    -0.05194
                               V22  TOT/SRF=    -0.00371    -0.04579
                               V22M TOT/SRF=     0.00000     0.00000
                               V21  TOT/SRF=     0.00000     0.00000
                               V21M TOT/SRF=     0.00000     0.00000

             -0.00307    0.00000    0.00000       -0.00307    0.00000    0.00000
              0.00000    0.00436    0.00000        0.00000    0.00436    0.00000
              0.00000    0.00000   -0.00129        0.00000    0.00000   -0.00129

         MAIN DIRECTIONS OF THE EFG   1.0000  0.0000  0.0000
                                      0.0000  1.0000  0.0000
                                      0.0000  0.0000  1.0000
:ANG002:  ANGLE WITH OLD X-AXIS =         0.0

:ETA002:                         ASYMM. ETA =     0.40955


       ATOMNUMBER=  3 Rh1        VCOUL-ZERO =  0.58433E+00
:EFG003:                        EFG         =    -0.03255   *10**21  V / m**2
                               V20  TOT/SRF=     0.00078     0.01362
                               V22  TOT/SRF=     0.03210    -0.06777
                               V22M TOT/SRF=     0.00000     0.00000
                               V21  TOT/SRF=     0.00000     0.00000
                               V21M TOT/SRF=     0.00000     0.00000

              0.03165    0.00000    0.00000        0.03165    0.00000    0.00000
              0.00000   -0.03255    0.00000        0.00000   -0.03255    0.00000
              0.00000    0.00000    0.00090        0.00000    0.00000    0.00090

         MAIN DIRECTIONS OF THE EFG   1.0000 -0.0000  0.0000
                                      0.0000  1.0000  0.0000
                                      0.0000  0.0000  1.0000
:ANG003:  ANGLE WITH OLD X-AXIS =         0.0

:ETA003:                         ASYMM. ETA =     0.94477


       ATOMNUMBER=  4 Fe3        VCOUL-ZERO =  0.68968E+00
:EFG004:                        EFG         =     0.00427   *10**21  V / m**2
                               V20  TOT/SRF=    -0.00093    -0.05194
                               V22  TOT/SRF=    -0.00373    -0.04579
                               V22M TOT/SRF=     0.00000     0.00000
                               V21  TOT/SRF=     0.00000     0.00000
                               V21M TOT/SRF=     0.00000     0.00000

             -0.00320    0.00000    0.00000       -0.00320    0.00000    0.00000
              0.00000    0.00427    0.00000        0.00000    0.00427    0.00000
              0.00000    0.00000   -0.00107        0.00000    0.00000   -0.00107

         MAIN DIRECTIONS OF THE EFG   1.0000  0.0000  0.0000
                                      0.0000  1.0000  0.0000
                                      0.0000  0.0000  1.0000
:ANG004:  ANGLE WITH OLD X-AXIS =         0.0

:ETA004:                         ASYMM. ETA =     0.49844


       ATOMNUMBER=  5 Fe4        VCOUL-ZERO =  0.68968E+00
:EFG005:                        EFG         =     0.00427   *10**21  V / m**2
                               V20  TOT/SRF=    -0.00093    -0.05194
                               V22  TOT/SRF=    -0.00373    -0.04579
                               V22M TOT/SRF=     0.00000     0.00000
                               V21  TOT/SRF=     0.00000     0.00000
                               V21M TOT/SRF=     0.00000     0.00000

             -0.00320    0.00000    0.00000       -0.00320    0.00000    0.00000
              0.00000    0.00427    0.00000        0.00000    0.00427    0.00000
              0.00000    0.00000   -0.00107        0.00000    0.00000   -0.00107

         MAIN DIRECTIONS OF THE EFG   1.0000  0.0000  0.0000
                                      0.0000  1.0000  0.0000
                                      0.0000  0.0000  1.0000
:ANG005:  ANGLE WITH OLD X-AXIS =         0.0

:ETA005:                         ASYMM. ETA =     0.49844


       ATOMNUMBER=  6 Rh3        VCOUL-ZERO =  0.58433E+00
:EFG006:                        EFG         =    -0.03278   *10**21  V / m**2
                               V20  TOT/SRF=     0.00092     0.01362
                               V22  TOT/SRF=     0.03225    -0.06777
                               V22M TOT/SRF=    -0.00000     0.00000
                               V21  TOT/SRF=     0.00000     0.00000
                               V21M TOT/SRF=     0.00000     0.00000

              0.03172   -0.00000    0.00000        0.03172    0.00000    0.00000
             -0.00000   -0.03278    0.00000        0.00000   -0.03278    0.00000
              0.00000    0.00000    0.00106        0.00000    0.00000    0.00106

         MAIN DIRECTIONS OF THE EFG   1.0000  0.0000  0.0000
                                     -0.0000  1.0000  0.0000
                                      0.0000  0.0000  1.0000
:ANG006:  ANGLE WITH OLD X-AXIS =         0.0

:ETA006:                         ASYMM. ETA =     0.93509


     HELLMANN-FEYNMAN-FORCE IN mRy/a.u. = |F|  Fx       Fy             Fz
:FHF001:   1.ATOM      0.000000443507      0.000000000000      0.000000000000     -0.000000443507

     HELLMANN-FEYNMAN-FORCE IN mRy/a.u. = |F|  Fx       Fy             Fz
:FHF002:   2.ATOM      0.000000443683      0.000000000000      0.000000000000      0.000000443683

     HELLMANN-FEYNMAN-FORCE IN mRy/a.u. = |F|  Fx       Fy             Fz
:FHF003:   3.ATOM      0.000000756412      0.000000756382      0.000000006700      0.000000000000

     HELLMANN-FEYNMAN-FORCE IN mRy/a.u. = |F|  Fx       Fy             Fz
:FHF004:   4.ATOM      0.000003822001      0.000000000000      0.000000000000      0.000003822001

     HELLMANN-FEYNMAN-FORCE IN mRy/a.u. = |F|  Fx       Fy             Fz
:FHF005:   5.ATOM      0.000003822662      0.000000000000      0.000000000000     -0.000003822662

     HELLMANN-FEYNMAN-FORCE IN mRy/a.u. = |F|  Fx       Fy             Fz
:FHF006:   6.ATOM      0.000006613351     -0.000006613337     -0.000000013626      0.000000000000

:FIT001: LUSE= 13 SIGMA OF V-XC FIT FOR ATOM  1  0.3951570E-02
:FIT001: LUSE= 13 SIGMA OF V-XC FIT FOR ATOM  1  0.3034288E-02
:FIT002: LUSE= 13 SIGMA OF V-XC FIT FOR ATOM  2  0.3951570E-02
:FIT002: LUSE= 13 SIGMA OF V-XC FIT FOR ATOM  2  0.3034288E-02
:FIT003: LUSE= 13 SIGMA OF V-XC FIT FOR ATOM  3  0.1055668E-02
:FIT003: LUSE= 13 SIGMA OF V-XC FIT FOR ATOM  3  0.6521980E-03
:FIT004: LUSE= 13 SIGMA OF V-XC FIT FOR ATOM  4  0.3730358E-02
:FIT004: LUSE= 13 SIGMA OF V-XC FIT FOR ATOM  4  0.2992773E-02
:FIT005: LUSE= 13 SIGMA OF V-XC FIT FOR ATOM  5  0.3730358E-02
:FIT005: LUSE= 13 SIGMA OF V-XC FIT FOR ATOM  5  0.2992773E-02
:FIT006: LUSE= 13 SIGMA OF V-XC FIT FOR ATOM  6  0.9604385E-03
:FIT006: LUSE= 13 SIGMA OF V-XC FIT FOR ATOM  6  0.7297002E-03
:DEN  : DENSITY INTEGRAL  =        -19747.55140996   (Ry)
       ELS_POTENTIAL_AT Z=0 and Z=0.5:  -0.74931  -0.74931
       ELS_POTENTIAL_AT Y=0 and Y=0.5:  -0.31719  -0.31719
:VZERO:v0,v0c,v0x  -1.60686  -0.74931  -0.85755 v5,v5c,v5x  -1.60686  -0.74931  -0.85755
:VZERY:v0,v0c,v0x  -1.12384  -0.31719  -0.80665 v5,v5c,v5x  -1.12384  -0.31719  -0.80665
:VZERX:v0,v0c,v0x  -1.10670  -0.28745  -0.81925 v5,v5c,v5x  -1.10677  -0.28751  -0.81926
:LMAX-WF:   10   Non-Spherical LMAX:   4

          ATOMIC SPHERE DEPENDENT PARAMETERS FOR ATOM  Fe1       
:e__0001: OVERALL ENERGY PARAMETER IS    0.5000
          OVERALL BASIS SET ON ATOM IS LAPW
:E1_0001: E( 1)=    0.5000
             APW+lo
:E1_0001: E( 1)=   -3.1317   E(BOTTOM)=   -3.164   E(TOP)=   -3.099  1  2   184
             LOCAL ORBITAL
:E2_0001: E( 2)=    0.6506   E(BOTTOM)=    0.408   E(TOP)=    0.893  0  1   124
             APW+lo
:E0_0001: E( 0)=    0.5000
             APW+lo

          ATOMIC SPHERE DEPENDENT PARAMETERS FOR ATOM  Fe2       
:e__0002: OVERALL ENERGY PARAMETER IS    0.5000
          OVERALL BASIS SET ON ATOM IS LAPW
:E1_0002: E( 1)=    0.5000
             APW+lo
:E1_0002: E( 1)=   -3.1317   E(BOTTOM)=   -3.164   E(TOP)=   -3.099  1  2   184
             LOCAL ORBITAL
:E2_0002: E( 2)=    0.6506   E(BOTTOM)=    0.408   E(TOP)=    0.893  0  1   124
             APW+lo
:E0_0002: E( 0)=    0.5000
             APW+lo

          ATOMIC SPHERE DEPENDENT PARAMETERS FOR ATOM  Rh1       
:e__0003: OVERALL ENERGY PARAMETER IS    0.5000
          OVERALL BASIS SET ON ATOM IS LAPW
:E1_0003: E( 1)=    0.5000
             APW+lo
:E1_0003: E( 1)=   -2.7656   E(BOTTOM)=   -2.860   E(TOP)=   -2.671  2  3   182
             LOCAL ORBITAL
:E2_0003: E( 2)=    0.5154   E(BOTTOM)=    0.078   E(TOP)=    0.953  1  2   146
             APW+lo
:E0_0003: E( 0)=    0.5000
             APW+lo

          ATOMIC SPHERE DEPENDENT PARAMETERS FOR ATOM  Fe3       
:e__0004: OVERALL ENERGY PARAMETER IS    0.5000
          OVERALL BASIS SET ON ATOM IS LAPW
:E1_0004: E( 1)=    0.5000
             APW+lo
:E1_0004: E( 1)=   -3.1317   E(BOTTOM)=   -3.164   E(TOP)=   -3.099  1  2   182
             LOCAL ORBITAL
:E2_0004: E( 2)=    0.6506   E(BOTTOM)=    0.408   E(TOP)=    0.893  0  1   125
             APW+lo
:E0_0004: E( 0)=    0.5000
             APW+lo

          ATOMIC SPHERE DEPENDENT PARAMETERS FOR ATOM  Fe4       
:e__0005: OVERALL ENERGY PARAMETER IS    0.5000
          OVERALL BASIS SET ON ATOM IS LAPW
:E1_0005: E( 1)=    0.5000
             APW+lo
:E1_0005: E( 1)=   -3.1317   E(BOTTOM)=   -3.164   E(TOP)=   -3.099  1  2   182
             LOCAL ORBITAL
:E2_0005: E( 2)=    0.6506   E(BOTTOM)=    0.408   E(TOP)=    0.893  0  1   125
             APW+lo
:E0_0005: E( 0)=    0.5000
             APW+lo

          ATOMIC SPHERE DEPENDENT PARAMETERS FOR ATOM  Rh3       
:e__0006: OVERALL ENERGY PARAMETER IS    0.5000
          OVERALL BASIS SET ON ATOM IS LAPW
:E1_0006: E( 1)=    0.5000
             APW+lo
:E1_0006: E( 1)=   -2.7656   E(BOTTOM)=   -2.860   E(TOP)=   -2.671  2  3   184
             LOCAL ORBITAL
:E2_0006: E( 2)=    0.5154   E(BOTTOM)=    0.078   E(TOP)=    0.953  1  2   142
             APW+lo
:E0_0006: E( 0)=    0.5000
             APW+lo

       K=   0.00000   0.00000   0.00000            1
:RKM  : MATRIX SIZE   397LOs:  96  RKM= 6.91  WEIGHT= 1.00  PGR:    
       EIGENVALUES ARE:
:EIG00001:      -3.1324612   -3.1284782   -3.1268770   -3.1263428   -3.1263255
:EIG00006:      -3.1253818   -3.1236979   -3.1236818   -3.1229586   -3.1229419
:EIG00011:      -3.1195726   -3.1151164   -2.7753336   -2.7528950   -2.7487058
:EIG00016:      -2.7487003   -2.7480058   -2.7442023   -2.7441958   -2.7414159
:EIG00021:      -2.7414100   -2.7394478   -2.7304673   -2.7216854    0.0801024
:EIG00026:       0.2326928    0.2759278    0.3056738    0.3188032    0.3188055
:EIG00031:       0.3362788    0.3362832    0.3601786    0.3811289    0.4247542
:EIG00036:       0.4623870    0.4623901    0.4969656    0.4969740    0.5269042
:EIG00041:       0.5269077    0.5306361    0.5340829    0.5340917    0.5466570
:EIG00046:       0.5504384    0.5504475    0.6152349    0.6428376    0.6570853
 
:EIG00051:       0.6639161    0.6639312    0.6962531    0.6962692    0.6975059
:EIG00056:       0.7042274    0.7042400    0.7188891    0.7196996    0.7289993
:EIG00061:       0.7388986    0.7505453    0.7680588    0.7726010    0.7726075
:EIG00066:       0.7896204    0.7897424    0.7976082    0.7976156    0.8159515
:EIG00071:       0.8210741    1.2859434    1.2866001    1.3285292    1.3385474
:EIG00076:       1.3495581    1.7879671    1.8256012    1.8256091    1.8290820
:EIG00081:       1.8833371    1.8833458    1.9394431    1.9394512    1.9505115
:EIG00086:       1.9505117    1.9806178    1.9869357    1.9869415    2.0000023
:EIG00091:       2.0099874    2.0099998    2.0161910    2.0257610    2.0361517
:EIG00096:       2.0361551    2.0807104    2.1144616    2.1144699    2.1549474
 
:EIG00101:       2.1595505    2.1795378
       ********************************************************

:KPT   :      NUMBER OF K-POINTS:   310
:LMAX-WF:   10   Non-Spherical LMAX:   4

          ATOMIC SPHERE DEPENDENT PARAMETERS FOR ATOM  Fe1       
:e__0001: OVERALL ENERGY PARAMETER IS    0.5000
          OVERALL BASIS SET ON ATOM IS LAPW
:E1_0001: E( 1)=    0.5000
             APW+lo
:E1_0001: E( 1)=   -2.9462   E(BOTTOM)=   -2.980   E(TOP)=   -2.912  1  2   205
             LOCAL ORBITAL
:E2_0001: E( 2)=    0.5662   E(BOTTOM)=    0.566   E(TOP)= -200.000  0 -1    79
             APW+lo
:E0_0001: E( 0)=    0.5000
             APW+lo

          ATOMIC SPHERE DEPENDENT PARAMETERS FOR ATOM  Fe2       
:e__0002: OVERALL ENERGY PARAMETER IS    0.5000
          OVERALL BASIS SET ON ATOM IS LAPW
:E1_0002: E( 1)=    0.5000
             APW+lo
:E1_0002: E( 1)=   -2.9462   E(BOTTOM)=   -2.980   E(TOP)=   -2.912  1  2   205
             LOCAL ORBITAL
:E2_0002: E( 2)=    0.5662   E(BOTTOM)=    0.566   E(TOP)= -200.000  0 -1    79
             APW+lo
:E0_0002: E( 0)=    0.5000
             APW+lo

          ATOMIC SPHERE DEPENDENT PARAMETERS FOR ATOM  Rh1       
:e__0003: OVERALL ENERGY PARAMETER IS    0.5000
          OVERALL BASIS SET ON ATOM IS LAPW
:E1_0003: E( 1)=    0.5000
             APW+lo
:E1_0003: E( 1)=   -2.7643   E(BOTTOM)=   -2.859   E(TOP)=   -2.669  2  3   180
             LOCAL ORBITAL
:E2_0003: E( 2)=    0.5174   E(BOTTOM)=    0.081   E(TOP)=    0.954  1  2   144
             APW+lo
:E0_0003: E( 0)=    0.5000
             APW+lo

          ATOMIC SPHERE DEPENDENT PARAMETERS FOR ATOM  Fe3       
:e__0004: OVERALL ENERGY PARAMETER IS    0.5000
          OVERALL BASIS SET ON ATOM IS LAPW
:E1_0004: E( 1)=    0.5000
             APW+lo
:E1_0004: E( 1)=   -2.9462   E(BOTTOM)=   -2.980   E(TOP)=   -2.912  1  2   200
             LOCAL ORBITAL
:E2_0004: E( 2)=    0.5662   E(BOTTOM)=    0.566   E(TOP)= -200.000  0 -1    77
             APW+lo
:E0_0004: E( 0)=    0.5000
             APW+lo

          ATOMIC SPHERE DEPENDENT PARAMETERS FOR ATOM  Fe4       
:e__0005: OVERALL ENERGY PARAMETER IS    0.5000
          OVERALL BASIS SET ON ATOM IS LAPW
:E1_0005: E( 1)=    0.5000
             APW+lo
:E1_0005: E( 1)=   -2.9462   E(BOTTOM)=   -2.980   E(TOP)=   -2.912  1  2   200
             LOCAL ORBITAL
:E2_0005: E( 2)=    0.5662   E(BOTTOM)=    0.566   E(TOP)= -200.000  0 -1    77
             APW+lo
:E0_0005: E( 0)=    0.5000
             APW+lo

          ATOMIC SPHERE DEPENDENT PARAMETERS FOR ATOM  Rh3       
:e__0006: OVERALL ENERGY PARAMETER IS    0.5000
          OVERALL BASIS SET ON ATOM IS LAPW
:E1_0006: E( 1)=    0.5000
             APW+lo
:E1_0006: E( 1)=   -2.7643   E(BOTTOM)=   -2.859   E(TOP)=   -2.669  2  3   175
             LOCAL ORBITAL
:E2_0006: E( 2)=    0.5174   E(BOTTOM)=    0.081   E(TOP)=    0.954  1  2   141
             APW+lo
:E0_0006: E( 0)=    0.5000
             APW+lo

       K=   0.00000   0.00000   0.00000            1
:RKM  : MATRIX SIZE   397LOs:  96  RKM= 6.91  WEIGHT= 1.00  PGR:    
       EIGENVALUES ARE:
:EIG00001:      -2.9470623   -2.9438841   -2.9412749   -2.9408425   -2.9408254
:EIG00006:      -2.9401550   -2.9378260   -2.9378094   -2.9370762   -2.9370582
:EIG00011:      -2.9335673   -2.9287235   -2.7740622   -2.7514908   -2.7475607
:EIG00016:      -2.7475552   -2.7453688   -2.7425051   -2.7424992   -2.7402453
:EIG00021:      -2.7402396   -2.7373223   -2.7291541   -2.7206304    0.1298008
:EIG00026:       0.2489388    0.3062611    0.3372164    0.3530635    0.3530715
:EIG00031:       0.3664722    0.3664747    0.3664796    0.4484953    0.4598722
:EIG00036:       0.4960982    0.4961026    0.5139202    0.5139206    0.5323260
:EIG00041:       0.5323298    0.5457329    0.5457350    0.5653480    0.5788071
:EIG00046:       0.6466281    0.6467171    0.6467239    0.7613476    0.7729747
 
:EIG00051:       0.7741703    0.7778147    0.7778898    0.8042687    0.8253681
:EIG00056:       0.8253756    0.8598818    0.8598923    0.8663297    0.8713943
:EIG00061:       0.8714074    0.8817781    0.8817830    0.9120460    0.9268202
:EIG00066:       0.9302455    0.9319165    0.9413861    0.9413982    0.9623989
:EIG00071:       1.0023484    1.3745301    1.3759699    1.3890393    1.4009016
:EIG00076:       1.4026108    1.8245951    1.8718512    1.9350134    1.9350171
:EIG00081:       1.9953434    1.9953504    2.0077154    2.0077223    2.0467352
:EIG00086:       2.0467458    2.0631610    2.0631645    2.0635213    2.0635237
:EIG00091:       2.0770880    2.0838429    2.0838435    2.0847124    2.0996227
:EIG00096:       2.1042090    2.1432476    2.1491891    2.1491969    2.1946619
 
       ********************************************************

:KPT   :      NUMBER OF K-POINTS:   310
:GAP (global)   :    0.0    Ry =     0.0   eV (metal)
:GAP (this spin):    0.0    Ry =     0.0   eV (metal)
         Bandranges (emin - emax) and occupancy:
:BAN00058:  58    0.693566    0.739087  1.00000000
:BAN00059:  59    0.704033    0.744755  1.00000000
:BAN00060:  60    0.715901    0.754148  1.00000000
:BAN00061:  61    0.715912    0.771933  1.00000000
:BAN00062:  62    0.719773    0.784439  0.99940746
:BAN00063:  63    0.728010    0.784452  0.99667025
:BAN00064:  64    0.744967    0.789834  0.91886531
:BAN00065:  65    0.746863    0.903043  0.39756643
:BAN00066:  66    0.760435    0.906309  0.11383737
:BAN00067:  67    0.764146    0.969966  0.01056839
:BAN00068:  68    0.764148    0.969966  0.00037731
:BAN00069:  69    0.796781    1.193637  0.00000000
:BAN00070:  70    0.797415    1.233576  0.00000000
:BAN00071:  71    0.819272    1.264624  0.00000000
:BAN00072:  72    0.964651    1.293970  0.00000000
:BAN00073:  73    1.219114    1.453390  0.00000000
        Energy to separate low and high energystates:    0.03010


:NOE  : NUMBER OF ELECTRONS          =  116.000

:FER  : F E R M I - ENERGY(TETRAH.M.)=   0.7738041973
:GMA  : POTENTIAL AND CHARGE CUT-OFF  12.00 Ry**.5

:POS001: ATOM   -1 X,Y,Z = 0.00000 0.00000 0.00000  MULT= 1  ZZ= 26.000  Fe1       

       LMMAX 16
       LM=   0 0  1 0  2 0  2 2  3 0  3 2  4 0  4 2  4 4  5 0  5 2  5 4  6 0  6 2  6 4  6 6

:CHA001: TOTAL VALENCE CHARGE INSIDE SPHERE   1 =   7.3743    (RMT=  2.4300 )
:PCS001: PARTIAL CHARGES SPHERE =  1 S,P,D,F,PX,PY,PZ,D-Z2,D-X2Y2,D-XY,D-XZ,D-YZ 
:QTL001: 0.2313 3.2470 3.8639 0.0234 1.0826 1.0853 1.0791 0.7529 0.8129 0.7358 0.7174 0.8448
        Q-s-low E-s-low   Q-p-low E-p-low   Q-d-low E-d-low   Q-f-low E-f-low
:EPL001:  0.0003 -2.8273    2.9946 -3.1246    0.0008 -2.8287    0.0003 -2.8307
        Q-s-hi  E-s-hi    Q-p-hi  E-p-hi    Q-d-hi  E-d-hi    Q-f-hi  E-f-hi 
:EPH001:  0.2310  0.3484    0.2524  0.4881    3.8631  0.6508    0.0230  0.5550

                      VXX         VYY         VZZ       UP TO R
:VZZ001:             0.64443    -1.36221     0.71778       2.430

:POS002: ATOM   -2 X,Y,Z = 0.00000 0.00000 0.50000  MULT= 1  ZZ= 26.000  Fe2       

       LMMAX 16
       LM=   0 0  1 0  2 0  2 2  3 0  3 2  4 0  4 2  4 4  5 0  5 2  5 4  6 0  6 2  6 4  6 6

:CHA002: TOTAL VALENCE CHARGE INSIDE SPHERE   2 =   7.3743    (RMT=  2.4300 )
:PCS002: PARTIAL CHARGES SPHERE =  2 S,P,D,F,PX,PY,PZ,D-Z2,D-X2Y2,D-XY,D-XZ,D-YZ 
:QTL002: 0.2313 3.2470 3.8639 0.0234 1.0826 1.0853 1.0791 0.7529 0.8129 0.7358 0.7174 0.8448
        Q-s-low E-s-low   Q-p-low E-p-low   Q-d-low E-d-low   Q-f-low E-f-low
:EPL002:  0.0003 -2.8273    2.9946 -3.1246    0.0008 -2.8287    0.0003 -2.8307
        Q-s-hi  E-s-hi    Q-p-hi  E-p-hi    Q-d-hi  E-d-hi    Q-f-hi  E-f-hi 
:EPH002:  0.2310  0.3484    0.2524  0.4881    3.8631  0.6508    0.0230  0.5550

                      VXX         VYY         VZZ       UP TO R
:VZZ002:             0.64443    -1.36221     0.71778       2.430

:POS003: ATOM   -3 X,Y,Z = 0.00000 0.25000 0.25000  MULT= 2  ZZ= 45.000  Rh1       

       LMMAX 28
       LM=   0 0  1 1 -1 1  2 0  2 2 -2 2  3 1 -3 1  3 3 -3 3  4 0  4 2 -4 2  4 4 -4 4  5 1 -5 1
         5 3 -5 3  5 5 -5 5  6 0  6 2 -6 2  6 4 -6 4  6 6 -6 6

:CHA003: TOTAL VALENCE CHARGE INSIDE SPHERE   3 =   7.4982    (RMT=  2.4300 )
:PCS003: PARTIAL CHARGES SPHERE =  3 S,P,D,F,PX,PY,PZ,D-Z2,D-X2Y2,D-XY,D-XZ,D-YZ 
:QTL003: 0.2029 3.1936 4.0617 0.0306 1.0621 1.0671 1.0644 0.8487 0.7825 0.8445 0.7806 0.8054
        Q-s-low E-s-low   Q-p-low E-p-low   Q-d-low E-d-low   Q-f-low E-f-low
:EPL003:  0.0003 -2.8323    2.9808 -2.7461    0.0008 -2.8324    0.0004 -2.8358
        Q-s-hi  E-s-hi    Q-p-hi  E-p-hi    Q-d-hi  E-d-hi    Q-f-hi  E-f-hi 
:EPH003:  0.2025  0.3367    0.2128  0.4982    4.0609  0.4974    0.0302  0.5645

                      QXX         QXY         QYY         QZZ       UP TO R
:VZZ003:             1.91376    -0.00000    -1.43907    -0.47468       2.430

:POS004: ATOM   -4 X,Y,Z = 0.50000 0.00000 0.25000  MULT= 1  ZZ= 26.000  Fe3       

       LMMAX 16
       LM=   0 0  1 0  2 0  2 2  3 0  3 2  4 0  4 2  4 4  5 0  5 2  5 4  6 0  6 2  6 4  6 6

:CHA004: TOTAL VALENCE CHARGE INSIDE SPHERE   4 =   7.3725    (RMT=  2.4300 )
:PCS004: PARTIAL CHARGES SPHERE =  4 S,P,D,F,PX,PY,PZ,D-Z2,D-X2Y2,D-XY,D-XZ,D-YZ 
:QTL004: 0.2312 3.2470 3.8622 0.0234 1.0826 1.0852 1.0792 0.7522 0.8125 0.7347 0.7178 0.8450
        Q-s-low E-s-low   Q-p-low E-p-low   Q-d-low E-d-low   Q-f-low E-f-low
:EPL004:  0.0003 -2.8273    2.9946 -3.1246    0.0008 -2.8287    0.0003 -2.8307
        Q-s-hi  E-s-hi    Q-p-hi  E-p-hi    Q-d-hi  E-d-hi    Q-f-hi  E-f-hi 
:EPH004:  0.2309  0.3482    0.2524  0.4881    3.8614  0.6507    0.0230  0.5550

                      VXX         VYY         VZZ       UP TO R
:VZZ004:             0.67293    -1.35805     0.68511       2.430

:POS005: ATOM   -5 X,Y,Z = 0.50000 0.00000 0.75000  MULT= 1  ZZ= 26.000  Fe4       

       LMMAX 16
       LM=   0 0  1 0  2 0  2 2  3 0  3 2  4 0  4 2  4 4  5 0  5 2  5 4  6 0  6 2  6 4  6 6

:CHA005: TOTAL VALENCE CHARGE INSIDE SPHERE   5 =   7.3725    (RMT=  2.4300 )
:PCS005: PARTIAL CHARGES SPHERE =  5 S,P,D,F,PX,PY,PZ,D-Z2,D-X2Y2,D-XY,D-XZ,D-YZ 
:QTL005: 0.2312 3.2470 3.8622 0.0234 1.0826 1.0852 1.0792 0.7522 0.8125 0.7347 0.7178 0.8450
        Q-s-low E-s-low   Q-p-low E-p-low   Q-d-low E-d-low   Q-f-low E-f-low
:EPL005:  0.0003 -2.8273    2.9946 -3.1246    0.0008 -2.8287    0.0003 -2.8307
        Q-s-hi  E-s-hi    Q-p-hi  E-p-hi    Q-d-hi  E-d-hi    Q-f-hi  E-f-hi 
:EPH005:  0.2309  0.3482    0.2524  0.4881    3.8614  0.6507    0.0230  0.5550

                      VXX         VYY         VZZ       UP TO R
:VZZ005:             0.67293    -1.35805     0.68511       2.430

:POS006: ATOM   -6 X,Y,Z = 0.50000 0.25000 0.50000  MULT= 2  ZZ= 45.000  Rh3       

       LMMAX 28
       LM=   0 0  1 1 -1 1  2 0  2 2 -2 2  3 1 -3 1  3 3 -3 3  4 0  4 2 -4 2  4 4 -4 4  5 1 -5 1
         5 3 -5 3  5 5 -5 5  6 0  6 2 -6 2  6 4 -6 4  6 6 -6 6

:CHA006: TOTAL VALENCE CHARGE INSIDE SPHERE   6 =   7.4984    (RMT=  2.4300 )
:PCS006: PARTIAL CHARGES SPHERE =  6 S,P,D,F,PX,PY,PZ,D-Z2,D-X2Y2,D-XY,D-XZ,D-YZ 
:QTL006: 0.2029 3.1936 4.0619 0.0306 1.0621 1.0671 1.0644 0.8488 0.7827 0.8442 0.7809 0.8053
        Q-s-low E-s-low   Q-p-low E-p-low   Q-d-low E-d-low   Q-f-low E-f-low
:EPL006:  0.0003 -2.8323    2.9808 -2.7461    0.0008 -2.8324    0.0004 -2.8358
        Q-s-hi  E-s-hi    Q-p-hi  E-p-hi    Q-d-hi  E-d-hi    Q-f-hi  E-f-hi 
:EPH006:  0.2026  0.3367    0.2128  0.4982    4.0610  0.4974    0.0302  0.5645

                      QXX         QXY         QYY         QZZ       UP TO R
:VZZ006:             1.90204    -0.00000    -1.41546    -0.48658       2.430

:CHA  : TOTAL VALENCE CHARGE INSIDE UNIT CELL =      64.437293

:SUM  : SUM OF EIGENVALUES =         -48.476268168

:GAP (global)   :    0.0    Ry =     0.0   eV (metal)
:GAP (this spin):    0.0    Ry =     0.0   eV (metal)
         Bandranges (emin - emax) and occupancy:
:BAN00044:  44    0.552824    0.663617  1.00000000
:BAN00045:  45    0.575723    0.717557  1.00000000
:BAN00046:  46    0.585441    0.753916  1.00000000
:BAN00047:  47    0.611591    0.753920  1.00000000
:BAN00048:  48    0.618172    0.762422  1.00000000
:BAN00049:  49    0.642414    0.769272  1.00000000
:BAN00050:  50    0.686362    0.780370  0.98512214
:BAN00051:  51    0.711733    0.790146  0.90807799
:BAN00052:  52    0.731557    0.797402  0.50559965
:BAN00053:  53    0.734725    0.817876  0.12688877
:BAN00054:  54    0.751054    0.829602  0.03701893
:BAN00055:  55    0.775779    0.849844  0.00000000
:BAN00056:  56    0.782190    0.849844  0.00000000
:BAN00057:  57    0.806948    0.877168  0.00000000
:BAN00058:  58    0.831381    0.890984  0.00000000
:BAN00059:  59    0.835297    0.905976  0.00000000
        Energy to separate low and high energystates:    0.07980


:NOE  : NUMBER OF ELECTRONS          =  116.000

:FER  : F E R M I - ENERGY(TETRAH.M.)=   0.7738041973
:GMA  : POTENTIAL AND CHARGE CUT-OFF  12.00 Ry**.5

:POS001: ATOM   -1 X,Y,Z = 0.00000 0.00000 0.00000  MULT= 1  ZZ= 26.000  Fe1       

       LMMAX 16
       LM=   0 0  1 0  2 0  2 2  3 0  3 2  4 0  4 2  4 4  5 0  5 2  5 4  6 0  6 2  6 4  6 6

:CHA001: TOTAL VALENCE CHARGE INSIDE SPHERE   1 =   4.4210    (RMT=  2.4300 )
:PCS001: PARTIAL CHARGES SPHERE =  1 S,P,D,F,PX,PY,PZ,D-Z2,D-X2Y2,D-XY,D-XZ,D-YZ 
:QTL001: 0.2153 3.2046 0.9781 0.0167 1.0737 1.0766 1.0544 0.2427 0.1496 0.2336 0.2038 0.1484
        Q-s-low E-s-low   Q-p-low E-p-low   Q-d-low E-d-low   Q-f-low E-f-low
:EPL001:  0.0003 -2.7926    2.9941 -2.9389    0.0008 -2.7905    0.0003 -2.7905
        Q-s-hi  E-s-hi    Q-p-hi  E-p-hi    Q-d-hi  E-d-hi    Q-f-hi  E-f-hi 
:EPH001:  0.2150  0.4208    0.2105  0.5284    0.9773  0.6509    0.0164  0.5352

                      VXX         VYY         VZZ       UP TO R
:VZZ001:            -1.75441     0.88884     0.86557       2.430

:POS002: ATOM   -2 X,Y,Z = 0.00000 0.00000 0.50000  MULT= 1  ZZ= 26.000  Fe2       

       LMMAX 16
       LM=   0 0  1 0  2 0  2 2  3 0  3 2  4 0  4 2  4 4  5 0  5 2  5 4  6 0  6 2  6 4  6 6

:CHA002: TOTAL VALENCE CHARGE INSIDE SPHERE   2 =   4.4210    (RMT=  2.4300 )
:PCS002: PARTIAL CHARGES SPHERE =  2 S,P,D,F,PX,PY,PZ,D-Z2,D-X2Y2,D-XY,D-XZ,D-YZ 
:QTL002: 0.2153 3.2046 0.9781 0.0167 1.0737 1.0766 1.0544 0.2427 0.1496 0.2336 0.2038 0.1484
        Q-s-low E-s-low   Q-p-low E-p-low   Q-d-low E-d-low   Q-f-low E-f-low
:EPL002:  0.0003 -2.7926    2.9941 -2.9389    0.0008 -2.7905    0.0003 -2.7905
        Q-s-hi  E-s-hi    Q-p-hi  E-p-hi    Q-d-hi  E-d-hi    Q-f-hi  E-f-hi 
:EPH002:  0.2150  0.4208    0.2105  0.5284    0.9773  0.6509    0.0164  0.5352

                      VXX         VYY         VZZ       UP TO R
:VZZ002:            -1.75441     0.88884     0.86557       2.430

:POS003: ATOM   -3 X,Y,Z = 0.00000 0.25000 0.25000  MULT= 2  ZZ= 45.000  Rh1       

       LMMAX 28
       LM=   0 0  1 1 -1 1  2 0  2 2 -2 2  3 1 -3 1  3 3 -3 3  4 0  4 2 -4 2  4 4 -4 4  5 1 -5 1
         5 3 -5 3  5 5 -5 5  6 0  6 2 -6 2  6 4 -6 4  6 6 -6 6

:CHA003: TOTAL VALENCE CHARGE INSIDE SPHERE   3 =   7.3373    (RMT=  2.4300 )
:PCS003: PARTIAL CHARGES SPHERE =  3 S,P,D,F,PX,PY,PZ,D-Z2,D-X2Y2,D-XY,D-XZ,D-YZ 
:QTL003: 0.2147 3.1972 3.8961 0.0225 1.0614 1.0739 1.0619 0.8048 0.7611 0.7814 0.7859 0.7629
        Q-s-low E-s-low   Q-p-low E-p-low   Q-d-low E-d-low   Q-f-low E-f-low
:EPL003:  0.0003 -2.7967    2.9810 -2.7447    0.0009 -2.7943    0.0004 -2.7950
        Q-s-hi  E-s-hi    Q-p-hi  E-p-hi    Q-d-hi  E-d-hi    Q-f-hi  E-f-hi 
:EPH003:  0.2144  0.3774    0.2162  0.5443    3.8952  0.4858    0.0221  0.5472

                      QXX         QXY         QYY         QZZ       UP TO R
:VZZ003:             3.89700     0.00000    -3.97444     0.07744       2.430

:POS004: ATOM   -4 X,Y,Z = 0.50000 0.00000 0.25000  MULT= 1  ZZ= 26.000  Fe3       

       LMMAX 16
       LM=   0 0  1 0  2 0  2 2  3 0  3 2  4 0  4 2  4 4  5 0  5 2  5 4  6 0  6 2  6 4  6 6

:CHA004: TOTAL VALENCE CHARGE INSIDE SPHERE   4 =   4.4210    (RMT=  2.4300 )
:PCS004: PARTIAL CHARGES SPHERE =  4 S,P,D,F,PX,PY,PZ,D-Z2,D-X2Y2,D-XY,D-XZ,D-YZ 
:QTL004: 0.2153 3.2047 0.9780 0.0167 1.0737 1.0766 1.0544 0.2432 0.1499 0.2337 0.2031 0.1482
        Q-s-low E-s-low   Q-p-low E-p-low   Q-d-low E-d-low   Q-f-low E-f-low
:EPL004:  0.0003 -2.7926    2.9941 -2.9389    0.0008 -2.7905    0.0003 -2.7905
        Q-s-hi  E-s-hi    Q-p-hi  E-p-hi    Q-d-hi  E-d-hi    Q-f-hi  E-f-hi 
:EPH004:  0.2150  0.4209    0.2106  0.5285    0.9773  0.6509    0.0164  0.5352

                      VXX         VYY         VZZ       UP TO R
:VZZ004:            -1.73583     0.85959     0.87624       2.430

:POS005: ATOM   -5 X,Y,Z = 0.50000 0.00000 0.75000  MULT= 1  ZZ= 26.000  Fe4       

       LMMAX 16
       LM=   0 0  1 0  2 0  2 2  3 0  3 2  4 0  4 2  4 4  5 0  5 2  5 4  6 0  6 2  6 4  6 6

:CHA005: TOTAL VALENCE CHARGE INSIDE SPHERE   5 =   4.4210    (RMT=  2.4300 )
:PCS005: PARTIAL CHARGES SPHERE =  5 S,P,D,F,PX,PY,PZ,D-Z2,D-X2Y2,D-XY,D-XZ,D-YZ 
:QTL005: 0.2153 3.2047 0.9780 0.0167 1.0737 1.0766 1.0544 0.2432 0.1499 0.2337 0.2031 0.1482
        Q-s-low E-s-low   Q-p-low E-p-low   Q-d-low E-d-low   Q-f-low E-f-low
:EPL005:  0.0003 -2.7926    2.9941 -2.9389    0.0008 -2.7905    0.0003 -2.7905
        Q-s-hi  E-s-hi    Q-p-hi  E-p-hi    Q-d-hi  E-d-hi    Q-f-hi  E-f-hi 
:EPH005:  0.2150  0.4209    0.2106  0.5285    0.9773  0.6509    0.0164  0.5352

[...]

                      QXX         QXY         QYY         QZZ       UP TO R
:VZZ003:             0.44852    -0.00000    -3.45864     3.01012       2.430

:POS004: ATOM   -4 X,Y,Z = 0.50000 0.00000 0.25000  MULT= 1  ZZ= 26.000  Fe3       

       LMMAX 16
       LM=   0 0  1 0  2 0  2 2  3 0  3 2  4 0  4 2  4 4  5 0  5 2  5 4  6 0  6 2  6 4  6 6

:CHA004: TOTAL VALENCE CHARGE INSIDE SPHERE   4 =   5.1270    (RMT=  2.4300 )
:PCS004: PARTIAL CHARGES SPHERE =  4 S,P,D,F,PX,PY,PZ,D-Z2,D-X2Y2,D-XY,D-XZ,D-YZ 
:QTL004: 0.2132 3.2106 1.6797 0.0175 1.0726 1.0743 1.0638 0.3705 0.2531 0.3773 0.4598 0.2189
        Q-s-low E-s-low   Q-p-low E-p-low   Q-d-low E-d-low   Q-f-low E-f-low
:EPL004:  0.0003 -2.8146    2.9948 -3.1379    0.0008 -2.8165    0.0003 -2.8189
        Q-s-hi  E-s-hi    Q-p-hi  E-p-hi    Q-d-hi  E-d-hi    Q-f-hi  E-f-hi 
:EPH004:  0.2129  0.3307    0.2158  0.4587    1.6789  0.5498    0.0172  0.5102

                      VXX         VYY         VZZ       UP TO R
:VZZ004:            -2.02585     3.29221    -1.26636       2.430

:POS005: ATOM   -5 X,Y,Z = 0.50000 0.00000 0.75000  MULT= 1  ZZ= 26.000  Fe4       

       LMMAX 16
       LM=   0 0  1 0  2 0  2 2  3 0  3 2  4 0  4 2  4 4  5 0  5 2  5 4  6 0  6 2  6 4  6 6

:CHA005: TOTAL VALENCE CHARGE INSIDE SPHERE   5 =   5.1270    (RMT=  2.4300 )
:PCS005: PARTIAL CHARGES SPHERE =  5 S,P,D,F,PX,PY,PZ,D-Z2,D-X2Y2,D-XY,D-XZ,D-YZ 
:QTL005: 0.2132 3.2106 1.6797 0.0175 1.0726 1.0743 1.0638 0.3705 0.2531 0.3773 0.4598 0.2189
        Q-s-low E-s-low   Q-p-low E-p-low   Q-d-low E-d-low   Q-f-low E-f-low
:EPL005:  0.0003 -2.8146    2.9948 -3.1379    0.0008 -2.8165    0.0003 -2.8189
        Q-s-hi  E-s-hi    Q-p-hi  E-p-hi    Q-d-hi  E-d-hi    Q-f-hi  E-f-hi 
:EPH005:  0.2129  0.3307    0.2158  0.4587    1.6789  0.5498    0.0172  0.5102

                      VXX         VYY         VZZ       UP TO R
:VZZ005:            -2.02585     3.29221    -1.26636       2.430

:POS006: ATOM   -6 X,Y,Z = 0.50000 0.25000 0.50000  MULT= 2  ZZ= 45.000  Rh3       

       LMMAX 28
       LM=   0 0  1 1 -1 1  2 0  2 2 -2 2  3 1 -3 1  3 3 -3 3  4 0  4 2 -4 2  4 4 -4 4  5 1 -5 1
         5 3 -5 3  5 5 -5 5  6 0  6 2 -6 2  6 4 -6 4  6 6 -6 6

:CHA006: TOTAL VALENCE CHARGE INSIDE SPHERE   6 =   6.6642    (RMT=  2.4300 )
:PCS006: PARTIAL CHARGES SPHERE =  6 S,P,D,F,PX,PY,PZ,D-Z2,D-X2Y2,D-XY,D-XZ,D-YZ 
:QTL006: 0.1946 3.1637 3.2781 0.0215 1.0505 1.0608 1.0524 0.6134 0.6625 0.6665 0.6999 0.6357
        Q-s-low E-s-low   Q-p-low E-p-low   Q-d-low E-d-low   Q-f-low E-f-low
:EPL006:  0.0003 -2.8195    2.9806 -2.7300    0.0008 -2.8201    0.0004 -2.8240
        Q-s-hi  E-s-hi    Q-p-hi  E-p-hi    Q-d-hi  E-d-hi    Q-f-hi  E-f-hi 
:EPH006:  0.1943  0.3283    0.1830  0.4733    3.2773  0.4624    0.0211  0.5113

                      QXX         QXY         QYY         QZZ       UP TO R
:VZZ006:             0.44962    -0.00000    -3.44366     2.99404       2.430

:CHA  : TOTAL VALENCE CHARGE INSIDE UNIT CELL =      51.611715

:SUM  : SUM OF EIGENVALUES =         -57.433086741


        1.ATOM      Fe1                   5 CORE STATES
       CORE-FORCE in mRy/a.u. = |F|      Fx             Fy             Fz
:FCO001:   1.ATOM      0.000000150700      0.000000000000      0.000000000000     -0.000000150700

:1S 001: 1S                -513.173927062 Ry
:2S 001: 2S                 -59.124998917 Ry
:2PP001: 2P*                -50.818515723 Ry
:2P 001: 2P                 -49.901832404 Ry
:3S 001: 3S                  -5.832766405 Ry

        2.ATOM      Fe2                   5 CORE STATES
       CORE-FORCE in mRy/a.u. = |F|      Fx             Fy             Fz
:FCO002:   2.ATOM      0.000000163938      0.000000000000      0.000000000000      0.000000163938

:1S 002: 1S                -513.173927035 Ry
:2S 002: 2S                 -59.124998904 Ry
:2PP002: 2P*                -50.818515708 Ry
:2P 002: 2P                 -49.901832389 Ry
:3S 002: 3S                  -5.832766399 Ry

        3.ATOM      Rh1                  10 CORE STATES
       CORE-FORCE in mRy/a.u. = |F|      Fx             Fy             Fz
:FCO003:   3.ATOM      0.000000623397      0.000000623065      0.000000020326      0.000000000000

:1S 003: 1S               -1691.425355947 Ry
:2S 003: 2S                -244.328742458 Ry
:2PP003: 2P*               -226.137547833 Ry
:2P 003: 2P                -215.508569131 Ry
:3S 003: 3S                 -42.861961330 Ry
:3PP003: 3P*                -35.743996153 Ry
:3P 003: 3P                 -33.915427190 Ry
:3DD003: 3D*                -21.318580562 Ry
:3D 003: 3D                 -20.957956237 Ry
:4S 003: 4S                  -5.093748104 Ry

        4.ATOM      Fe3                   5 CORE STATES
       CORE-FORCE in mRy/a.u. = |F|      Fx             Fy             Fz
:FCO004:   4.ATOM      0.000001355030      0.000000000000      0.000000000000      0.000001355030

:1S 004: 1S                -513.173868856 Ry
:2S 004: 2S                 -59.124943313 Ry
:2PP004: 2P*                -50.818459802 Ry
:2P 004: 2P                 -49.901776519 Ry
:3S 004: 3S                  -5.832723620 Ry

        5.ATOM      Fe4                   5 CORE STATES
       CORE-FORCE in mRy/a.u. = |F|      Fx             Fy             Fz
:FCO005:   5.ATOM      0.000001252540      0.000000000000      0.000000000000     -0.000001252540

:1S 005: 1S                -513.173868853 Ry
:2S 005: 2S                 -59.124943311 Ry
:2PP005: 2P*                -50.818459801 Ry
:2P 005: 2P                 -49.901776518 Ry
:3S 005: 3S                  -5.832723620 Ry

        6.ATOM      Rh3                  10 CORE STATES
       CORE-FORCE in mRy/a.u. = |F|      Fx             Fy             Fz
:FCO006:   6.ATOM      0.000007069504     -0.000007069492     -0.000000012976      0.000000000000

:1S 006: 1S               -1691.425352034 Ry
:2S 006: 2S                -244.328744137 Ry
:2PP006: 2P*               -226.137549962 Ry
:2P 006: 2P                -215.508571291 Ry
:3S 006: 3S                 -42.861964171 Ry
:3PP006: 3P*                -35.743999039 Ry
:3P 006: 3P                 -33.915430084 Ry
:3DD006: 3D*                -21.318583367 Ry
:3D 006: 3D                 -20.957959044 Ry
:4S 006: 4S                  -5.093753466 Ry

        1.ATOM      Fe1                   5 CORE STATES
       CORE-FORCE in mRy/a.u. = |F|      Fx             Fy             Fz
:FCO001:   1.ATOM      0.000000147384      0.000000000000      0.000000000000     -0.000000147384

:1S 001: 1S                -513.173501940 Ry
:2S 001: 2S                 -59.037028978 Ry
:2PP001: 2P*                -50.753001878 Ry
:2P 001: 2P                 -49.834405409 Ry
:3S 001: 3S                  -5.629565519 Ry

        2.ATOM      Fe2                   5 CORE STATES
       CORE-FORCE in mRy/a.u. = |F|      Fx             Fy             Fz
:FCO002:   2.ATOM      0.000000162035      0.000000000000      0.000000000000      0.000000162035

:1S 002: 1S                -513.173501914 Ry
:2S 002: 2S                 -59.037028963 Ry
:2PP002: 2P*                -50.753001862 Ry
:2P 002: 2P                 -49.834405393 Ry
:3S 002: 3S                  -5.629565511 Ry

        3.ATOM      Rh1                  10 CORE STATES
       CORE-FORCE in mRy/a.u. = |F|      Fx             Fy             Fz
:FCO003:   3.ATOM      0.000000588400      0.000000587728      0.000000028124      0.000000000000

:1S 003: 1S               -1691.425382406 Ry
:2S 003: 2S                -244.327374205 Ry
:2PP003: 2P*               -226.136569714 Ry
:2P 003: 2P                -215.507517830 Ry
:3S 003: 3S                 -42.861200554 Ry
:3PP003: 3P*                -35.743118053 Ry
:3P 003: 3P                 -33.914573953 Ry
:3DD003: 3D*                -21.317275562 Ry
:3D 003: 3D                 -20.956654922 Ry
:4S 003: 4S                  -5.087384741 Ry

        4.ATOM      Fe3                   5 CORE STATES
       CORE-FORCE in mRy/a.u. = |F|      Fx             Fy             Fz
:FCO004:   4.ATOM      0.000001342325      0.000000000000      0.000000000000      0.000001342325

:1S 004: 1S                -513.173443765 Ry
:2S 004: 2S                 -59.036974156 Ry
:2PP004: 2P*                -50.752946572 Ry
:2P 004: 2P                 -49.834350154 Ry
:3S 004: 3S                  -5.629528136 Ry

        5.ATOM      Fe4                   5 CORE STATES
       CORE-FORCE in mRy/a.u. = |F|      Fx             Fy             Fz
:FCO005:   5.ATOM      0.000001239272      0.000000000000      0.000000000000     -0.000001239272

:1S 005: 1S                -513.173443762 Ry
:2S 005: 2S                 -59.036974155 Ry
:2PP005: 2P*                -50.752946570 Ry
:2P 005: 2P                 -49.834350152 Ry
:3S 005: 3S                  -5.629528135 Ry

        6.ATOM      Rh3                  10 CORE STATES
       CORE-FORCE in mRy/a.u. = |F|      Fx             Fy             Fz
:FCO006:   6.ATOM      0.000006799225     -0.000006799212     -0.000000012937      0.000000000000

:1S 006: 1S               -1691.425378474 Ry
:2S 006: 2S                -244.327375985 Ry
:2PP006: 2P*               -226.136571899 Ry
:2P 006: 2P                -215.507520053 Ry
:3S 006: 3S                 -42.861203434 Ry
:3PP006: 3P*                -35.743120983 Ry
:3P 006: 3P                 -33.914576889 Ry
:3DD006: 3D*                -21.317278445 Ry
:3D 006: 3D                 -20.956657806 Ry
:4S 006: 4S                  -5.087385790 Ry
:CINT001 Core Integral Atom   1 Up    5.999648 Dn   5.999620 Total  11.999268
:CINT002 Core Integral Atom   2 Up    5.999648 Dn   5.999620 Total  11.999268
:CINT003 Core Integral Atom   3 Up   14.998699 Dn  14.998697 Total  29.997396
:CINT004 Core Integral Atom   4 Up    5.999648 Dn   5.999620 Total  11.999268
:CINT005 Core Integral Atom   5 Up    5.999648 Dn   5.999620 Total  11.999268
:CINT006 Core Integral Atom   6 Up   14.998699 Dn  14.998698 Total  29.997397

       DENSITY AT NUCLEUS
        JATOM        VALENCE       SEMI-CORE          CORE           TOTAL
:RTO001:   1        6.460307        0.000000    15303.251739    15309.712045
:RTO002:   2        6.460307        0.000000    15303.251739    15309.712045
:RTO003:   3       20.642597        0.000000   129454.280231   129474.922827
:RTO004:   4        6.859180        0.000000    16258.553343    16265.412523
:RTO005:   5        6.859180        0.000000    16258.553342    16265.412523
:RTO006:   6       24.760866        0.000000   155312.918510   155337.679376

       HYPERFINE FIELDS FOR THOMSON RADIUS
:HFF001:          128.286           0.000        -303.894        -175.608 (KGAUSS)
:HFF002:          128.286           0.000        -303.894        -175.608 (KGAUSS)
:HFF003:         -147.079           0.000         -33.819        -180.898 (KGAUSS)
:HFF004:          128.102           0.000        -303.770        -175.669 (KGAUSS)
:HFF005:          128.102           0.000        -303.770        -175.669 (KGAUSS)
:HFF006:         -147.531           0.000         -34.090        -181.622 (KGAUSS)
     
       CHARGES OF NEW CHARGE DENSITY
:NTO   : INTERSTITIAL     UP =     4.565660 DN =     4.444643 TOT =     9.010303
:NPC   : PW Pseudocharge  UP =    11.400114 DN =    10.178888 TOT =    21.579003
:NTO001: CHARGE SPHERE  1 UP =    13.947244 DN =    11.127979 TOT =    25.075222
:NTO002: CHARGE SPHERE  2 UP =    13.947244 DN =    11.127979 TOT =    25.075222
:NTO003: CHARGE SPHERE  3 UP =    22.006890 DN =    21.662604 TOT =    43.669494
:NTO004: CHARGE SPHERE  4 UP =    13.946396 DN =    11.126665 TOT =    25.073061
:NTO005: CHARGE SPHERE  5 UP =    13.946396 DN =    11.126665 TOT =    25.073061
:NTO006: CHARGE SPHERE  6 UP =    22.007440 DN =    21.662896 TOT =    43.670336

:NEC01: NUCLEAR AND ELECTRONIC CHARGE    284.00000   283.98653
     
       CHARGES OF OLD CHARGE DENSITY
:OTO   : INTERSTITIAL     UP =     4.647837 DN =     3.913194 TOT =     8.561031
:OPC   : PW Pseudocharge  UP =    12.783641 DN =    10.707615 TOT =    23.491256
:OTO001: CHARGE SPHERE  1 UP =    13.937723 DN =    11.219549 TOT =    25.157272
:OTO002: CHARGE SPHERE  2 UP =    13.937724 DN =    11.219549 TOT =    25.157272
:OTO003: CHARGE SPHERE  3 UP =    21.930953 DN =    21.771503 TOT =    43.702456
:OTO004: CHARGE SPHERE  4 UP =    13.937718 DN =    11.219585 TOT =    25.157303
:OTO005: CHARGE SPHERE  5 UP =    13.937718 DN =    11.219585 TOT =    25.157303
:OTO006: CHARGE SPHERE  6 UP =    21.930955 DN =    21.771499 TOT =    43.702453

:NEC02: NUCLEAR AND ELECTRONIC CHARGE    284.00000   284.00000
     
       CONVERGENCE TEST
:DTO001: DIFFERENCE SPHERE  1 UP =  0.2033772 DN =  0.2161555 TOT =  0.4195327
:DTO002: DIFFERENCE SPHERE  2 UP =  0.2033773 DN =  0.2161555 TOT =  0.4195328
:DTO003: DIFFERENCE SPHERE  3 UP =  0.0698476 DN =  0.1441616 TOT =  0.2140092
:DTO004: DIFFERENCE SPHERE  4 UP =  0.2024560 DN =  0.2174817 TOT =  0.4199378
:DTO005: DIFFERENCE SPHERE  5 UP =  0.2024561 DN =  0.2174817 TOT =  0.4199378
:DTO006: DIFFERENCE SPHERE  6 UP =  0.0701765 DN =  0.1439824 TOT =  0.2141589

:DIS  :  CHARGE DISTANCE       ( 0.2174817 for atom    5 spin 2)      0.6338193
 PW Mixed is          702
 
******************************************************
* MULTISECANT MIXING VER9 RELEASE 10.4.0              *
* Slow Mode, cautious                                *
* Fixed density scale                                *
* Regularization       1.000E-04                     *
* Step Trust Radius    0.75000                       *
* Trust Upper Limit    2.000E+00                     *
* Max Number of Memory Steps   12                    *
******************************************************
 
:PWTMP   2.3530E+02  9.1833E+02  7.1614E+02
:PLANE:  PW TOTAL      3.6019 DISTAN   4.05E-01  1.12E+01 %
:CHARG:  CLM/ATOM    149.9490 DISTAN   1.31E-01  8.72E-02 %
 :WARNING:  ERROR in reading files, restarted
 
Step History
        DMIX         DMIXT        Red     Pred      Trust     Lambda    MagRel    MagAbs     Beta
  1   2.5000E-02   3.5000E-02 -1.00E+00  1.00E+00 -1.00E+01  1.00E+00  3.50E-02  3.50E-02  1.00E+00
:INFO :  Note, Pratt in use
:TRUST:  Step 3.75E-02  Charge 7.50E-02 (e) CTO  2.50E-01 (e) PW  3.50E-01 (e)
:DIRM :  MEMORY  0/12 SCALE   1.000
:MIX  :   PRATT  REGULARIZATION:  1.00E-04 GREED: 0.02500                  
     
       CHARGES OF MIXED CHARGE DENSITY
:CTO   : INTERSTITIAL     UP =     4.645953 DN =     3.926647 TOT =     8.572600
:CPC   : PW Pseudocharge  UP =    12.749479 DN =    10.694778 TOT =    23.444256
:CTO001: CHARGE SPHERE  1 UP =    13.937961 DN =    11.217259 TOT =    25.155221
:CTO002: CHARGE SPHERE  2 UP =    13.937962 DN =    11.217259 TOT =    25.155221
:CTO003: CHARGE SPHERE  3 UP =    21.932852 DN =    21.768780 TOT =    43.701632
:CTO004: CHARGE SPHERE  4 UP =    13.937935 DN =    11.217262 TOT =    25.155197
:CTO005: CHARGE SPHERE  5 UP =    13.937935 DN =    11.217262 TOT =    25.155197
:CTO006: CHARGE SPHERE  6 UP =    21.932867 DN =    21.768784 TOT =    43.701651

       SPIN MAGNETIC MOMENTS OF MIXED CHARGE DENSITY
:MMINT:  MAGNETIC MOMENT IN INTERSTITIAL  =    0.71931
:MMI001: MAGNETIC MOMENT IN SPHERE   1    =    2.72070
:MMI002: MAGNETIC MOMENT IN SPHERE   2    =    2.72070
:MMI003: MAGNETIC MOMENT IN SPHERE   3    =    0.16407
:MMI004: MAGNETIC MOMENT IN SPHERE   4    =    2.72067
:MMI005: MAGNETIC MOMENT IN SPHERE   5    =    2.72067
:MMI006: MAGNETIC MOMENT IN SPHERE   6    =    0.16408
:MMTOT:  SPIN MAGNETIC MOMENT IN CELL     =   12.25837

:NEC03: NUCLEAR AND ELECTRONIC CHARGE    284.00000   284.00000

PW CHANGE     H    K    L             Current                    Change               Residue
:PUP001:      0    0    0  2.42905222E-02 0.00000000E+00 -5.033E-05  0.000E+00 -2.013E-03  0.000E+00
:PUP002:      0   -1    1 -2.73020313E-12 3.50894608E-13 -2.313E-13  2.618E-14 -9.254E-12  1.047E-12
:PUP003:      0   -1   -1 -2.73020313E-12-3.50894608E-13 -2.313E-13 -2.618E-14 -9.254E-12 -1.047E-12
:PUP004:      0   -2    0 -4.36977792E-03 0.00000000E+00  1.474E-05  0.000E+00  5.894E-04  0.000E+00
:PUP005:      0    0    2  3.11570654E-07-2.53962338E-16  1.249E-08 -2.908E-17  4.996E-07 -1.163E-15
:PUP006:      0    0   -2  3.11570654E-07 2.53962338E-16  1.249E-08  2.908E-17  4.996E-07  1.163E-15
:PUP007:     -1    0    0 -2.72892923E-07 0.00000000E+00  7.924E-09  0.000E+00  3.170E-07  0.000E+00
:PUP008:      0   -2    2 -2.81694341E-07 2.79409849E-17  7.371E-09  6.277E-18  2.948E-07 -2.166E-17
:PUP009:      0   -2   -2 -2.81694341E-07-2.79409849E-17  7.371E-09 -6.277E-18  2.948E-07  2.166E-17
:PUP016:     -1   -2    0  5.75937885E-07 0.00000000E+00 -1.586E-08  0.000E+00 -6.344E-07  0.000E+00
:PUP017:     -1    0    2 -1.29778619E-03 0.00000000E+00  1.424E-05  0.000E+00  5.696E-04  0.000E+00
:PUP018:     -1    0   -2 -1.29778619E-03 0.00000000E+00  1.424E-05  0.000E+00  5.696E-04  0.000E+00
  
:PDN001:      0    0    0  2.04169718E-02 0.00000000E+00  8.582E-07  0.000E+00  3.433E-05  0.000E+00
:PDN002:      0   -1    1  2.40369656E-11-2.62993437E-12  2.071E-13 -1.109E-14  8.285E-12 -4.437E-13
:PDN003:      0   -1   -1  2.40369656E-11 2.62993437E-12  2.071E-13  1.109E-14  8.285E-12  4.437E-13
:PDN004:      0   -2    0 -7.37937857E-03 0.00000000E+00  4.921E-05  0.000E+00  1.968E-03  0.000E+00
:PDN005:      0    0    2  2.52102134E-07-4.92668231E-16  1.386E-08 -9.144E-17  5.542E-07 -3.658E-15
:PDN006:      0    0   -2  2.52102134E-07 4.92668231E-16  1.386E-08  9.144E-17  5.542E-07  3.658E-15
:PDN007:     -1    0    0 -2.16190779E-07 0.00000000E+00  1.371E-08  0.000E+00  5.486E-07  0.000E+00
:PDN008:      0   -2    2 -2.09205461E-07-5.86710057E-16  2.935E-09 -1.884E-16  1.174E-07 -7.535E-15
:PDN009:      0   -2   -2 -2.09205461E-07 5.86710057E-16  2.935E-09  1.884E-16  1.174E-07  7.535E-15
:PDN010:     -1   -1    1  1.44735143E-11 1.56253145E-12  1.267E-13  1.250E-14  5.067E-12  5.000E-13
:PDN011:     -1   -1   -1  1.44735143E-11-1.56253145E-12  1.267E-13 -1.250E-14  5.067E-12 -5.000E-13
:PDN012:      0   -3    1  8.92313801E-12-1.03864375E-12  1.566E-13 -2.324E-14  6.263E-12 -9.298E-13

:ENE  : *WARNING** TOTAL ENERGY IN Ry =       -48464.32629935

       TOTAL FORCE IN mRy/a.u. = |F|     Fx             Fy             Fz     with/without FOR in case.in2
:FOR001:   1.ATOM          0.000          0.000          0.000          0.000 partial forces
:FOR002:   2.ATOM          0.000          0.000          0.000         -0.000 partial forces
:FOR003:   3.ATOM          0.000         -0.000          0.000          0.000 partial forces
:FOR004:   4.ATOM          0.000          0.000          0.000         -0.000 partial forces
:FOR005:   5.ATOM          0.000          0.000          0.000          0.000 partial forces
:FOR006:   6.ATOM          0.000          0.000         -0.000          0.000 partial forces
       TOTAL FORCE WITH RESPECT TO GLOBAL CARTESIAN COORDINATES:
:FCA001:   1.ATOM                         0.000          0.000          0.000 partial forces
:FCA002:   2.ATOM                         0.000          0.000         -0.000 partial forces
:FCA003:   3.ATOM                         0.000         -0.000          0.000 partial forces
:FCA004:   4.ATOM                         0.000          0.000         -0.000 partial forces
:FCA005:   5.ATOM                         0.000          0.000          0.000 partial forces
:FCA006:   6.ATOM                         0.000          0.000         -0.000 partial forces
       TOTAL FORCE WITH RESPECT TO THE GLOBAL COORDINATE SYSTEM:
:FGL001:   1.ATOM                 0.000000000     0.000000000     0.000000357 partial forces
:FGL002:   2.ATOM                 0.000000000     0.000000000    -0.000000360 partial forces
:FGL003:   3.ATOM                 0.000000000    -0.000000180     0.000000001 partial forces
:FGL004:   4.ATOM                 0.000000000     0.000000000    -0.000003529 partial forces
:FGL005:   5.ATOM                 0.000000000     0.000000000     0.000003496 partial forces
:FGL006:   6.ATOM                 0.000000000     0.000001759    -0.000000012 partial forces
