
:LABEL1: Calculations in /home/cmueller/wien/FZU/src/FeRh/supercell/largeAFM_correct
:LABEL2: on cv036 at Sat Mar 15 11:29:40 AM CET 2025
:LABEL3: using WIEN2k_19.1 (Release 25/6/2019) in /home/cmueller/WIENROOT
:LABEL4: using the command: runsp_lapw
 Flat Integration
 New Mode for Coulomb Integral
 Consistent 3/8+Simpson combinations
 Extension of core to zero
 LDM version in phi
 Fifth-order quadrature in outwin


            ---------
:ITE001:  1. ITERATION
            ---------

:NATO :    6 INDEPENDENT AND    8 TOTAL ATOMS IN UNITCELL
       SUBSTANCE: FeRh                                                        

       LATTICE                      = CYZ 
:POT  : POTENTIAL OPTION EX_PBE EC_PBE VX_PBE VC_PBE
:LAT  : LATTICE CONSTANTS=  5.63611 15.94133 15.94133    1.571    1.571    1.571
:VOL  : UNIT CELL VOLUME =     716.14069
       MODE OF CALCULATION IS       = RELA
       SPINPOLARIZED CALCULATION
:IFFT  : FFT-parameters:   48  128  128 Factor: 2.00


   CONVERGENCE PARAMETER FOR PSEUDOCHARGE: NCON=  9
   MAXIMAL VALUE OF RMT(JATOM)*ABSK(NKK) : RK  =29.11372


:VKCOUL :  VK-COUL convergence: 0.378E-07
       ATOMNUMBER=  1 Fe1        VCOUL-ZERO =  0.72508E+00
:EFG001:                        EFG         =     0.03705   *10**21  V / m**2
                               V20  TOT/SRF=    -0.02504    -0.05812
                               V22  TOT/SRF=    -0.02260    -0.05384
                               V22M TOT/SRF=     0.00000     0.00000
                               V21  TOT/SRF=     0.00000     0.00000
                               V21M TOT/SRF=     0.00000     0.00000

             -0.00814    0.00000    0.00000       -0.00814    0.00000    0.00000
              0.00000    0.03705    0.00000        0.00000    0.03705    0.00000
              0.00000    0.00000   -0.02891        0.00000    0.00000   -0.02891

         MAIN DIRECTIONS OF THE EFG   1.0000  0.0000  0.0000
                                      0.0000  1.0000  0.0000
                                      0.0000  0.0000  1.0000
:ANG001:  ANGLE WITH OLD X-AXIS =         0.0

:ETA001:                         ASYMM. ETA =     0.56048


       ATOMNUMBER=  2 Fe2        VCOUL-ZERO =  0.72508E+00
:EFG002:                        EFG         =     0.03705   *10**21  V / m**2
                               V20  TOT/SRF=    -0.02504    -0.05812
                               V22  TOT/SRF=    -0.02260    -0.05384
                               V22M TOT/SRF=     0.00000     0.00000
                               V21  TOT/SRF=     0.00000     0.00000
                               V21M TOT/SRF=     0.00000     0.00000

             -0.00814    0.00000    0.00000       -0.00814    0.00000    0.00000
              0.00000    0.03705    0.00000        0.00000    0.03705    0.00000
              0.00000    0.00000   -0.02891        0.00000    0.00000   -0.02891

         MAIN DIRECTIONS OF THE EFG   1.0000  0.0000  0.0000
                                      0.0000  1.0000  0.0000
                                      0.0000  0.0000  1.0000
:ANG002:  ANGLE WITH OLD X-AXIS =         0.0

:ETA002:                         ASYMM. ETA =     0.56048


       ATOMNUMBER=  3 Rh1        VCOUL-ZERO =  0.60988E+00
:EFG003:                        EFG         =    -0.03689   *10**21  V / m**2
                               V20  TOT/SRF=     0.00706     0.01758
                               V22  TOT/SRF=    -0.03281    -0.07710
                               V22M TOT/SRF=    -0.00000     0.00000
                               V21  TOT/SRF=     0.00000     0.00000
                               V21M TOT/SRF=     0.00000     0.00000

             -0.03689   -0.00000    0.00000       -0.03689    0.00000    0.00000
             -0.00000    0.02873    0.00000        0.00000    0.02873    0.00000
              0.00000    0.00000    0.00816        0.00000    0.00000    0.00816

         MAIN DIRECTIONS OF THE EFG   1.0000 -0.0000  0.0000
                                      0.0000  1.0000  0.0000
                                      0.0000  0.0000  1.0000
:ANG003:  ANGLE WITH OLD X-AXIS =         0.0

:ETA003:                         ASYMM. ETA =     0.55774


       ATOMNUMBER=  4 Fe3        VCOUL-ZERO =  0.72508E+00
:EFG004:                        EFG         =     0.03707   *10**21  V / m**2
                               V20  TOT/SRF=    -0.02505    -0.05812
                               V22  TOT/SRF=    -0.02261    -0.05384
                               V22M TOT/SRF=     0.00000     0.00000
                               V21  TOT/SRF=     0.00000     0.00000
                               V21M TOT/SRF=     0.00000     0.00000

             -0.00814    0.00000    0.00000       -0.00814    0.00000    0.00000
              0.00000    0.03707    0.00000        0.00000    0.03707    0.00000
              0.00000    0.00000   -0.02892        0.00000    0.00000   -0.02892

         MAIN DIRECTIONS OF THE EFG   1.0000  0.0000  0.0000
                                      0.0000  1.0000  0.0000
                                      0.0000  0.0000  1.0000
:ANG004:  ANGLE WITH OLD X-AXIS =         0.0

:ETA004:                         ASYMM. ETA =     0.56060


       ATOMNUMBER=  5 Fe4        VCOUL-ZERO =  0.72508E+00
:EFG005:                        EFG         =     0.03707   *10**21  V / m**2
                               V20  TOT/SRF=    -0.02505    -0.05812
                               V22  TOT/SRF=    -0.02261    -0.05384
                               V22M TOT/SRF=     0.00000     0.00000
                               V21  TOT/SRF=     0.00000     0.00000
                               V21M TOT/SRF=     0.00000     0.00000

             -0.00814    0.00000    0.00000       -0.00814    0.00000    0.00000
              0.00000    0.03707    0.00000        0.00000    0.03707    0.00000
              0.00000    0.00000   -0.02892        0.00000    0.00000   -0.02892

         MAIN DIRECTIONS OF THE EFG   1.0000  0.0000  0.0000
                                      0.0000  1.0000  0.0000
                                      0.0000  0.0000  1.0000
:ANG005:  ANGLE WITH OLD X-AXIS =         0.0

:ETA005:                         ASYMM. ETA =     0.56060


       ATOMNUMBER=  6 Rh3        VCOUL-ZERO =  0.60988E+00
:EFG006:                        EFG         =    -0.03689   *10**21  V / m**2
                               V20  TOT/SRF=     0.00705     0.01758
                               V22  TOT/SRF=    -0.03282    -0.07710
                               V22M TOT/SRF=     0.00000     0.00000
                               V21  TOT/SRF=     0.00000     0.00000
                               V21M TOT/SRF=     0.00000     0.00000

             -0.03689    0.00000    0.00000       -0.03689    0.00000    0.00000
              0.00000    0.02875    0.00000        0.00000    0.02875    0.00000
              0.00000    0.00000    0.00814        0.00000    0.00000    0.00814

         MAIN DIRECTIONS OF THE EFG   1.0000  0.0000  0.0000
                                     -0.0000  1.0000  0.0000
                                      0.0000  0.0000  1.0000
:ANG006:  ANGLE WITH OLD X-AXIS =         0.0

:ETA006:                         ASYMM. ETA =     0.55866


     HELLMANN-FEYNMAN-FORCE IN mRy/a.u. = |F|  Fx       Fy             Fz
:FHF001:   1.ATOM      0.000000000127      0.000000000000      0.000000000000      0.000000000127

     HELLMANN-FEYNMAN-FORCE IN mRy/a.u. = |F|  Fx       Fy             Fz
:FHF002:   2.ATOM      0.000000000237      0.000000000000      0.000000000000      0.000000000237

     HELLMANN-FEYNMAN-FORCE IN mRy/a.u. = |F|  Fx       Fy             Fz
:FHF003:   3.ATOM      0.000000012585     -0.000000006990      0.000000010465      0.000000000000

     HELLMANN-FEYNMAN-FORCE IN mRy/a.u. = |F|  Fx       Fy             Fz
:FHF004:   4.ATOM      0.000000000170      0.000000000000      0.000000000000      0.000000000170

     HELLMANN-FEYNMAN-FORCE IN mRy/a.u. = |F|  Fx       Fy             Fz
:FHF005:   5.ATOM      0.000000000067      0.000000000000      0.000000000000     -0.000000000067

     HELLMANN-FEYNMAN-FORCE IN mRy/a.u. = |F|  Fx       Fy             Fz
:FHF006:   6.ATOM      0.000000016469     -0.000000002900     -0.000000016212      0.000000000000

:FIT001: LUSE= 13 SIGMA OF V-XC FIT FOR ATOM  1  0.3796725E-02
:FIT001: LUSE= 13 SIGMA OF V-XC FIT FOR ATOM  1  0.3682793E-02
:FIT002: LUSE= 13 SIGMA OF V-XC FIT FOR ATOM  2  0.3682793E-02
:FIT002: LUSE= 13 SIGMA OF V-XC FIT FOR ATOM  2  0.3796725E-02
:FIT003: LUSE= 13 SIGMA OF V-XC FIT FOR ATOM  3  0.9884071E-03
:FIT003: LUSE= 13 SIGMA OF V-XC FIT FOR ATOM  3  0.9884071E-03
:FIT004: LUSE= 13 SIGMA OF V-XC FIT FOR ATOM  4  0.3570563E-02
:FIT004: LUSE= 13 SIGMA OF V-XC FIT FOR ATOM  4  0.3681533E-02
:FIT005: LUSE= 13 SIGMA OF V-XC FIT FOR ATOM  5  0.3681533E-02
:FIT005: LUSE= 13 SIGMA OF V-XC FIT FOR ATOM  5  0.3570563E-02
:FIT006: LUSE= 13 SIGMA OF V-XC FIT FOR ATOM  6  0.9567215E-03
:FIT006: LUSE= 13 SIGMA OF V-XC FIT FOR ATOM  6  0.9567215E-03
:DEN  : DENSITY INTEGRAL  =        -19756.36240785   (Ry)
       ELS_POTENTIAL_AT Z=0 and Z=0.5:  -0.80919  -0.80919
       ELS_POTENTIAL_AT Y=0 and Y=0.5:  -0.36051  -0.36051
:VZERO:v0,v0c,v0x  -1.75529  -0.80919  -0.94610 v5,v5c,v5x  -1.75529  -0.80919  -0.94610
:VZERY:v0,v0c,v0x  -1.22905  -0.36051  -0.86855 v5,v5c,v5x  -1.22905  -0.36051  -0.86855
:VZERX:v0,v0c,v0x  -1.19685  -0.32063  -0.87622 v5,v5c,v5x  -1.19696  -0.32072  -0.87624
:LMAX-WF:   10   Non-Spherical LMAX:   4

          ATOMIC SPHERE DEPENDENT PARAMETERS FOR ATOM  Fe1       
:e__0001: OVERALL ENERGY PARAMETER IS    0.3000
          OVERALL BASIS SET ON ATOM IS LAPW
:E1_0001: E( 1)=    0.3000
             APW+lo
:E1_0001: E( 1)=   -3.0756   E(BOTTOM)=   -3.109   E(TOP)=   -3.043  1  2   191
             LOCAL ORBITAL
:E2_0001: E( 2)=    0.7030   E(BOTTOM)=    0.457   E(TOP)=    0.949  0  1   146
             APW+lo
:E0_0001: E( 0)=    0.3000
             APW+lo

          ATOMIC SPHERE DEPENDENT PARAMETERS FOR ATOM  Fe2       
:e__0002: OVERALL ENERGY PARAMETER IS    0.3000
          OVERALL BASIS SET ON ATOM IS LAPW
:E1_0002: E( 1)=    0.3000
             APW+lo
:E1_0002: E( 1)=   -2.8913   E(BOTTOM)=   -2.926   E(TOP)=   -2.857  1  2   186
             LOCAL ORBITAL
:E2_0002: E( 2)=    0.6132   E(BOTTOM)=    0.613   E(TOP)= -200.000  0 -1    98
             APW+lo
:E0_0002: E( 0)=    0.3000
             APW+lo

          ATOMIC SPHERE DEPENDENT PARAMETERS FOR ATOM  Rh1       
:e__0003: OVERALL ENERGY PARAMETER IS    0.3000
          OVERALL BASIS SET ON ATOM IS LAPW
:E1_0003: E( 1)=    0.3000
             APW+lo
:E1_0003: E( 1)=   -2.7474   E(BOTTOM)=   -2.842   E(TOP)=   -2.653  2  3   184
             LOCAL ORBITAL
:E2_0003: E( 2)=    0.5359   E(BOTTOM)=    0.100   E(TOP)=    0.972  1  2   142
             APW+lo
:E0_0003: E( 0)=    0.3000
             APW+lo

          ATOMIC SPHERE DEPENDENT PARAMETERS FOR ATOM  Fe3       
:e__0004: OVERALL ENERGY PARAMETER IS    0.3000
          OVERALL BASIS SET ON ATOM IS LAPW
:E1_0004: E( 1)=    0.3000
             APW+lo
:E1_0004: E( 1)=   -3.0756   E(BOTTOM)=   -3.109   E(TOP)=   -3.043  1  2   191
             LOCAL ORBITAL
:E2_0004: E( 2)=    0.7030   E(BOTTOM)=    0.457   E(TOP)=    0.949  0  1   144
             APW+lo
:E0_0004: E( 0)=    0.3000
             APW+lo

          ATOMIC SPHERE DEPENDENT PARAMETERS FOR ATOM  Fe4       
:e__0005: OVERALL ENERGY PARAMETER IS    0.3000
          OVERALL BASIS SET ON ATOM IS LAPW
:E1_0005: E( 1)=    0.3000
             APW+lo
:E1_0005: E( 1)=   -2.8913   E(BOTTOM)=   -2.926   E(TOP)=   -2.857  1  2   182
             LOCAL ORBITAL
:E2_0005: E( 2)=    0.6132   E(BOTTOM)=    0.613   E(TOP)= -200.000  0 -1    99
             APW+lo
:E0_0005: E( 0)=    0.3000
             APW+lo

          ATOMIC SPHERE DEPENDENT PARAMETERS FOR ATOM  Rh3       
:e__0006: OVERALL ENERGY PARAMETER IS    0.3000
          OVERALL BASIS SET ON ATOM IS LAPW
:E1_0006: E( 1)=    0.3000
             APW+lo
:E1_0006: E( 1)=   -2.7474   E(BOTTOM)=   -2.842   E(TOP)=   -2.653  2  3   182
             LOCAL ORBITAL
:E2_0006: E( 2)=    0.5358   E(BOTTOM)=    0.100   E(TOP)=    0.972  1  2   141
             APW+lo
:E0_0006: E( 0)=    0.3000
             APW+lo

       K=   0.00000   0.00000   0.00000            1
:RKM  : MATRIX SIZE   397LOs:  96  RKM= 6.91  WEIGHT= 1.00  PGR:    
       EIGENVALUES ARE:
:EIG00001:      -3.0717599   -3.0716869   -3.0701596   -3.0685519   -3.0648528
:EIG00006:      -3.0629097   -2.8879772   -2.8872187   -2.8859873   -2.8839474
:EIG00011:      -2.8800441   -2.8779256   -2.7575184   -2.7349419   -2.7310685
:EIG00016:      -2.7310549   -2.7282166   -2.7251581   -2.7251540   -2.7236473
:EIG00021:      -2.7236436   -2.7201030   -2.7126501   -2.7041901    0.1329512
:EIG00026:       0.2624747    0.3134843    0.3454780    0.3674016    0.3679785
:EIG00031:       0.3708261    0.3751791    0.3832883    0.4440375    0.4671124
:EIG00036:       0.5070539    0.5080853    0.5245657    0.5246224    0.5486593
:EIG00041:       0.5494203    0.5613925    0.5617362    0.5725131    0.5860579
:EIG00046:       0.6281901    0.6318179    0.6646510    0.6999399    0.7043732
 
:EIG00051:       0.7584159    0.7744474    0.7770962    0.7771717    0.7832737
:EIG00056:       0.7857763    0.7905290    0.7995792    0.8023285    0.8089976
:EIG00061:       0.8247162    0.8417958    0.8850161    0.8870856    0.9388512
:EIG00066:       0.9404342    0.9517493    0.9567672    0.9742487    0.9826162
:EIG00071:       1.0067254    1.3660672    1.3663818    1.3896842    1.4004540
:EIG00076:       1.4041819    1.8323396    1.8793016    1.9168116    1.9188312
:EIG00081:       1.9699002    1.9716586
       ********************************************************

:KPT   :      NUMBER OF K-POINTS:   310
:LMAX-WF:   10   Non-Spherical LMAX:   4

          ATOMIC SPHERE DEPENDENT PARAMETERS FOR ATOM  Fe1       
:e__0001: OVERALL ENERGY PARAMETER IS    0.3000
          OVERALL BASIS SET ON ATOM IS LAPW
:E1_0001: E( 1)=    0.3000
             APW+lo
:E1_0001: E( 1)=   -2.8913   E(BOTTOM)=   -2.926   E(TOP)=   -2.857  1  2   205
             LOCAL ORBITAL
:E2_0001: E( 2)=    0.6132   E(BOTTOM)=    0.613   E(TOP)= -200.000  0 -1    98
             APW+lo
:E0_0001: E( 0)=    0.3000
             APW+lo

          ATOMIC SPHERE DEPENDENT PARAMETERS FOR ATOM  Fe2       
:e__0002: OVERALL ENERGY PARAMETER IS    0.3000
          OVERALL BASIS SET ON ATOM IS LAPW
:E1_0002: E( 1)=    0.3000
             APW+lo
:E1_0002: E( 1)=   -3.0756   E(BOTTOM)=   -3.109   E(TOP)=   -3.043  1  2   173
             LOCAL ORBITAL
:E2_0002: E( 2)=    0.7030   E(BOTTOM)=    0.457   E(TOP)=    0.949  0  1   146
             APW+lo
:E0_0002: E( 0)=    0.3000
             APW+lo

          ATOMIC SPHERE DEPENDENT PARAMETERS FOR ATOM  Rh1       
:e__0003: OVERALL ENERGY PARAMETER IS    0.3000
          OVERALL BASIS SET ON ATOM IS LAPW
:E1_0003: E( 1)=    0.3000
             APW+lo
:E1_0003: E( 1)=   -2.7474   E(BOTTOM)=   -2.842   E(TOP)=   -2.653  2  3   184
             LOCAL ORBITAL
:E2_0003: E( 2)=    0.5359   E(BOTTOM)=    0.100   E(TOP)=    0.972  1  2   142
             APW+lo
:E0_0003: E( 0)=    0.3000
             APW+lo

          ATOMIC SPHERE DEPENDENT PARAMETERS FOR ATOM  Fe3       
:e__0004: OVERALL ENERGY PARAMETER IS    0.3000
          OVERALL BASIS SET ON ATOM IS LAPW
:E1_0004: E( 1)=    0.3000
             APW+lo
:E1_0004: E( 1)=   -2.8913   E(BOTTOM)=   -2.926   E(TOP)=   -2.857  1  2   201
             LOCAL ORBITAL
:E2_0004: E( 2)=    0.6132   E(BOTTOM)=    0.613   E(TOP)= -200.000  0 -1    99
             APW+lo
:E0_0004: E( 0)=    0.3000
             APW+lo

          ATOMIC SPHERE DEPENDENT PARAMETERS FOR ATOM  Fe4       
:e__0005: OVERALL ENERGY PARAMETER IS    0.3000
          OVERALL BASIS SET ON ATOM IS LAPW
:E1_0005: E( 1)=    0.3000
             APW+lo
:E1_0005: E( 1)=   -3.0756   E(BOTTOM)=   -3.109   E(TOP)=   -3.043  1  2   173
             LOCAL ORBITAL
:E2_0005: E( 2)=    0.7030   E(BOTTOM)=    0.457   E(TOP)=    0.949  0  1   144
             APW+lo
:E0_0005: E( 0)=    0.3000
             APW+lo

          ATOMIC SPHERE DEPENDENT PARAMETERS FOR ATOM  Rh3       
:e__0006: OVERALL ENERGY PARAMETER IS    0.3000
          OVERALL BASIS SET ON ATOM IS LAPW
:E1_0006: E( 1)=    0.3000
             APW+lo
:E1_0006: E( 1)=   -2.7474   E(BOTTOM)=   -2.842   E(TOP)=   -2.653  2  3   182
             LOCAL ORBITAL
:E2_0006: E( 2)=    0.5358   E(BOTTOM)=    0.100   E(TOP)=    0.972  1  2   141
             APW+lo
:E0_0006: E( 0)=    0.3000
             APW+lo

       K=   0.00000   0.00000   0.00000            1
:RKM  : MATRIX SIZE   397LOs:  96  RKM= 6.91  WEIGHT= 1.00  PGR:    
       EIGENVALUES ARE:
:EIG00001:      -3.0717599   -3.0716869   -3.0701596   -3.0685519   -3.0648528
:EIG00006:      -3.0629097   -2.8879772   -2.8872187   -2.8859873   -2.8839474
:EIG00011:      -2.8800441   -2.8779256   -2.7575184   -2.7349419   -2.7310685
:EIG00016:      -2.7310549   -2.7282166   -2.7251581   -2.7251540   -2.7236473
:EIG00021:      -2.7236436   -2.7201030   -2.7126501   -2.7041901    0.1329512
:EIG00026:       0.2624747    0.3134843    0.3454780    0.3674016    0.3679785
:EIG00031:       0.3708261    0.3751791    0.3832883    0.4440375    0.4671124
:EIG00036:       0.5070539    0.5080853    0.5245657    0.5246224    0.5486593
:EIG00041:       0.5494203    0.5613925    0.5617362    0.5725131    0.5860579
:EIG00046:       0.6281901    0.6318179    0.6646510    0.6999399    0.7043732
 
:EIG00051:       0.7584159    0.7744474    0.7770962    0.7771717    0.7832737
:EIG00056:       0.7857763    0.7905290    0.7995792    0.8023285    0.8089976
:EIG00061:       0.8247162    0.8417958    0.8850161    0.8870856    0.9388512
:EIG00066:       0.9404342    0.9517493    0.9567672    0.9742487    0.9826162
:EIG00071:       1.0067254    1.3660672    1.3663818    1.3896842    1.4004540
:EIG00076:       1.4041819    1.8323396    1.8793016    1.9168116    1.9188312
:EIG00081:       1.9699002    1.9716586
       ********************************************************

:KPT   :      NUMBER OF K-POINTS:   310
:GAP (global)   :    0.0    Ry =     0.0   eV (metal)
:GAP (this spin):    0.0    Ry =     0.0   eV (metal)
         Bandranges (emin - emax) and occupancy:
:BAN00050:  50    0.681823    0.746026  1.00000000
:BAN00051:  51    0.692564    0.758416  1.00000000
:BAN00052:  52    0.709266    0.774447  1.00000000
:BAN00053:  53    0.730879    0.777096  1.00000000
:BAN00054:  54    0.740534    0.784775  1.00000000
:BAN00055:  55    0.755755    0.793762  1.00000000
:BAN00056:  56    0.771119    0.801799  1.00000000
:BAN00057:  57    0.782245    0.814893  1.00000000
:BAN00058:  58    0.790382    0.832317  0.85120858
:BAN00059:  59    0.802328    0.858246  0.14433507
:BAN00060:  60    0.808998    0.870291  0.00445635
:BAN00061:  61    0.824716    0.910749  0.00000000
:BAN00062:  62    0.836853    0.927070  0.00000000
:BAN00063:  63    0.870291    0.941630  0.00000000
:BAN00064:  64    0.886911    0.949274  0.00000000
:BAN00065:  65    0.920639    0.984358  0.00000000
        Energy to separate low and high energystates:    0.08295


:NOE  : NUMBER OF ELECTRONS          =  116.000

:FER  : F E R M I - ENERGY(TETRAH.M.)=   0.8230588000
:GMA  : POTENTIAL AND CHARGE CUT-OFF  12.00 Ry**.5

:POS001: ATOM   -1 X,Y,Z = 0.00000 0.00000 0.00000  MULT= 1  ZZ= 26.000  Fe1       

       LMMAX 16
       LM=   0 0  1 0  2 0  2 2  3 0  3 2  4 0  4 2  4 4  5 0  5 2  5 4  6 0  6 2  6 4  6 6

:CHA001: TOTAL VALENCE CHARGE INSIDE SPHERE   1 =   7.2562    (RMT=  2.4300 )
:PCS001: PARTIAL CHARGES SPHERE =  1 S,P,D,F,PX,PY,PZ,D-Z2,D-X2Y2,D-XY,D-XZ,D-YZ 
:QTL001: 0.2346 3.2443 3.7487 0.0211 1.0834 1.0852 1.0757 0.7172 0.7419 0.7748 0.7740 0.7407
        Q-s-low E-s-low   Q-p-low E-p-low   Q-d-low E-d-low   Q-f-low E-f-low
:EPL001:  0.0003 -2.7854    2.9945 -3.0684    0.0008 -2.7845    0.0003 -2.7854
        Q-s-hi  E-s-hi    Q-p-hi  E-p-hi    Q-d-hi  E-d-hi    Q-f-hi  E-f-hi 
:EPH001:  0.2342  0.4031    0.2497  0.5365    3.7479  0.6974    0.0208  0.5793

                      VXX         VYY         VZZ       UP TO R
:VZZ001:             0.43029    -2.35361     1.92332       2.430

:POS002: ATOM   -2 X,Y,Z = 0.00000 0.00000 0.50000  MULT= 1  ZZ= 26.000  Fe2       

       LMMAX 16
       LM=   0 0  1 0  2 0  2 2  3 0  3 2  4 0  4 2  4 4  5 0  5 2  5 4  6 0  6 2  6 4  6 6

:CHA002: TOTAL VALENCE CHARGE INSIDE SPHERE   2 =   4.3408    (RMT=  2.4300 )
:PCS002: PARTIAL CHARGES SPHERE =  2 S,P,D,F,PX,PY,PZ,D-Z2,D-X2Y2,D-XY,D-XZ,D-YZ 
:QTL002: 0.2115 3.2155 0.8873 0.0190 1.0735 1.0791 1.0629 0.1827 0.1280 0.2234 0.2326 0.1206
        Q-s-low E-s-low   Q-p-low E-p-low   Q-d-low E-d-low   Q-f-low E-f-low
:EPL002:  0.0003 -2.7847    2.9940 -2.8839    0.0008 -2.7838    0.0003 -2.7842
        Q-s-hi  E-s-hi    Q-p-hi  E-p-hi    Q-d-hi  E-d-hi    Q-f-hi  E-f-hi 
:EPH002:  0.2112  0.4405    0.2216  0.5607    0.8866  0.6788    0.0187  0.5761

                      VXX         VYY         VZZ       UP TO R
:VZZ002:            -1.69736     0.89490     0.80246       2.430

:POS003: ATOM   -3 X,Y,Z = 0.00000 0.25000 0.25000  MULT= 2  ZZ= 45.000  Rh1       

       LMMAX 28
       LM=   0 0  1 1 -1 1  2 0  2 2 -2 2  3 1 -3 1  3 3 -3 3  4 0  4 2 -4 2  4 4 -4 4  5 1 -5 1
         5 3 -5 3  5 5 -5 5  6 0  6 2 -6 2  6 4 -6 4  6 6 -6 6

:CHA003: TOTAL VALENCE CHARGE INSIDE SPHERE   3 =   7.5068    (RMT=  2.4300 )
:PCS003: PARTIAL CHARGES SPHERE =  3 S,P,D,F,PX,PY,PZ,D-Z2,D-X2Y2,D-XY,D-XZ,D-YZ 
:QTL003: 0.2114 3.2038 4.0564 0.0269 1.0652 1.0721 1.0664 0.8391 0.7837 0.8256 0.8045 0.8035
        Q-s-low E-s-low   Q-p-low E-p-low   Q-d-low E-d-low   Q-f-low E-f-low
:EPL003:  0.0003 -2.7898    2.9810 -2.7279    0.0009 -2.7882    0.0004 -2.7898
        Q-s-hi  E-s-hi    Q-p-hi  E-p-hi    Q-d-hi  E-d-hi    Q-f-hi  E-f-hi 
:EPH003:  0.2111  0.3876    0.2228  0.5581    4.0556  0.5166    0.0265  0.5894

                      QXX         QXY         QYY         QZZ       UP TO R
:VZZ003:             2.66574    -0.27412    -1.85757    -0.80817       2.430

:POS004: ATOM   -4 X,Y,Z = 0.50000 0.00000 0.25000  MULT= 1  ZZ= 26.000  Fe3       

       LMMAX 16
       LM=   0 0  1 0  2 0  2 2  3 0  3 2  4 0  4 2  4 4  5 0  5 2  5 4  6 0  6 2  6 4  6 6

:CHA004: TOTAL VALENCE CHARGE INSIDE SPHERE   4 =   7.2563    (RMT=  2.4300 )
:PCS004: PARTIAL CHARGES SPHERE =  4 S,P,D,F,PX,PY,PZ,D-Z2,D-X2Y2,D-XY,D-XZ,D-YZ 
:QTL004: 0.2346 3.2443 3.7488 0.0211 1.0834 1.0852 1.0757 0.7172 0.7419 0.7748 0.7740 0.7407
        Q-s-low E-s-low   Q-p-low E-p-low   Q-d-low E-d-low   Q-f-low E-f-low
:EPL004:  0.0003 -2.7854    2.9945 -3.0684    0.0008 -2.7845    0.0003 -2.7854
        Q-s-hi  E-s-hi    Q-p-hi  E-p-hi    Q-d-hi  E-d-hi    Q-f-hi  E-f-hi 
:EPH004:  0.2342  0.4031    0.2497  0.5365    3.7480  0.6974    0.0208  0.5793

                      VXX         VYY         VZZ       UP TO R
:VZZ004:             0.43025    -2.35345     1.92320       2.430

:POS005: ATOM   -5 X,Y,Z = 0.50000 0.00000 0.75000  MULT= 1  ZZ= 26.000  Fe4       

       LMMAX 16
       LM=   0 0  1 0  2 0  2 2  3 0  3 2  4 0  4 2  4 4  5 0  5 2  5 4  6 0  6 2  6 4  6 6

:CHA005: TOTAL VALENCE CHARGE INSIDE SPHERE   5 =   4.3409    (RMT=  2.4300 )
:PCS005: PARTIAL CHARGES SPHERE =  5 S,P,D,F,PX,PY,PZ,D-Z2,D-X2Y2,D-XY,D-XZ,D-YZ 
:QTL005: 0.2115 3.2155 0.8874 0.0190 1.0735 1.0791 1.0629 0.1827 0.1280 0.2234 0.2326 0.1206
        Q-s-low E-s-low   Q-p-low E-p-low   Q-d-low E-d-low   Q-f-low E-f-low
:EPL005:  0.0003 -2.7847    2.9940 -2.8839    0.0008 -2.7838    0.0003 -2.7842
        Q-s-hi  E-s-hi    Q-p-hi  E-p-hi    Q-d-hi  E-d-hi    Q-f-hi  E-f-hi 
:EPH005:  0.2112  0.4405    0.2216  0.5607    0.8866  0.6788    0.0187  0.5761

                      VXX         VYY         VZZ       UP TO R
:VZZ005:            -1.69772     0.89462     0.80311       2.430

:POS006: ATOM   -6 X,Y,Z = 0.50000 0.25000 0.50000  MULT= 2  ZZ= 45.000  Rh3       

       LMMAX 28
       LM=   0 0  1 1 -1 1  2 0  2 2 -2 2  3 1 -3 1  3 3 -3 3  4 0  4 2 -4 2  4 4 -4 4  5 1 -5 1
         5 3 -5 3  5 5 -5 5  6 0  6 2 -6 2  6 4 -6 4  6 6 -6 6

:CHA006: TOTAL VALENCE CHARGE INSIDE SPHERE   6 =   7.5068    (RMT=  2.4300 )
:PCS006: PARTIAL CHARGES SPHERE =  6 S,P,D,F,PX,PY,PZ,D-Z2,D-X2Y2,D-XY,D-XZ,D-YZ 
:QTL006: 0.2114 3.2038 4.0564 0.0269 1.0652 1.0721 1.0664 0.8391 0.7837 0.8256 0.8045 0.8035
        Q-s-low E-s-low   Q-p-low E-p-low   Q-d-low E-d-low   Q-f-low E-f-low
:EPL006:  0.0003 -2.7898    2.9810 -2.7279    0.0009 -2.7882    0.0004 -2.7898
        Q-s-hi  E-s-hi    Q-p-hi  E-p-hi    Q-d-hi  E-d-hi    Q-f-hi  E-f-hi 
:EPH006:  0.2111  0.3876    0.2228  0.5581    4.0556  0.5166    0.0265  0.5894

                      QXX         QXY         QYY         QZZ       UP TO R
:VZZ006:             2.66588    -0.27404    -1.85793    -0.80795       2.430

:CHA  : TOTAL VALENCE CHARGE INSIDE UNIT CELL =      58.000000

:SUM  : SUM OF EIGENVALUES =         -49.469598007

:GAP (global)   :    0.0    Ry =     0.0   eV (metal)
:GAP (this spin):    0.0    Ry =     0.0   eV (metal)
         Bandranges (emin - emax) and occupancy:
:BAN00050:  50    0.681823    0.746026  1.00000000
:BAN00051:  51    0.692564    0.758416  1.00000000
:BAN00052:  52    0.709266    0.774447  1.00000000
:BAN00053:  53    0.730879    0.777096  1.00000000
:BAN00054:  54    0.740534    0.784775  1.00000000
:BAN00055:  55    0.755755    0.793762  1.00000000
:BAN00056:  56    0.771119    0.801799  1.00000000
:BAN00057:  57    0.782245    0.814893  1.00000000
:BAN00058:  58    0.790382    0.832317  0.85120858
:BAN00059:  59    0.802328    0.858246  0.14433507
:BAN00060:  60    0.808998    0.870291  0.00445635
:BAN00061:  61    0.824716    0.910749  0.00000000
:BAN00062:  62    0.836853    0.927070  0.00000000
:BAN00063:  63    0.870291    0.941630  0.00000000
:BAN00064:  64    0.886911    0.949274  0.00000000
:BAN00065:  65    0.920639    0.984358  0.00000000
        Energy to separate low and high energystates:    0.08295


:NOE  : NUMBER OF ELECTRONS          =  116.000

:FER  : F E R M I - ENERGY(TETRAH.M.)=   0.8230588000
:GMA  : POTENTIAL AND CHARGE CUT-OFF  12.00 Ry**.5

:POS001: ATOM   -1 X,Y,Z = 0.00000 0.00000 0.00000  MULT= 1  ZZ= 26.000  Fe1       

       LMMAX 16
       LM=   0 0  1 0  2 0  2 2  3 0  3 2  4 0  4 2  4 4  5 0  5 2  5 4  6 0  6 2  6 4  6 6

:CHA001: TOTAL VALENCE CHARGE INSIDE SPHERE   1 =   4.3408    (RMT=  2.4300 )
:PCS001: PARTIAL CHARGES SPHERE =  1 S,P,D,F,PX,PY,PZ,D-Z2,D-X2Y2,D-XY,D-XZ,D-YZ 
:QTL001: 0.2115 3.2155 0.8873 0.0190 1.0735 1.0791 1.0629 0.1827 0.1280 0.2234 0.2326 0.1206
        Q-s-low E-s-low   Q-p-low E-p-low   Q-d-low E-d-low   Q-f-low E-f-low
:EPL001:  0.0003 -2.7847    2.9940 -2.8839    0.0008 -2.7838    0.0003 -2.7842
        Q-s-hi  E-s-hi    Q-p-hi  E-p-hi    Q-d-hi  E-d-hi    Q-f-hi  E-f-hi 
:EPH001:  0.2112  0.4405    0.2216  0.5607    0.8866  0.6788    0.0187  0.5761

                      VXX         VYY         VZZ       UP TO R
:VZZ001:            -1.69736     0.89490     0.80246       2.430

:POS002: ATOM   -2 X,Y,Z = 0.00000 0.00000 0.50000  MULT= 1  ZZ= 26.000  Fe2       

       LMMAX 16
       LM=   0 0  1 0  2 0  2 2  3 0  3 2  4 0  4 2  4 4  5 0  5 2  5 4  6 0  6 2  6 4  6 6

:CHA002: TOTAL VALENCE CHARGE INSIDE SPHERE   2 =   7.2562    (RMT=  2.4300 )
:PCS002: PARTIAL CHARGES SPHERE =  2 S,P,D,F,PX,PY,PZ,D-Z2,D-X2Y2,D-XY,D-XZ,D-YZ 
:QTL002: 0.2346 3.2443 3.7487 0.0211 1.0834 1.0852 1.0757 0.7172 0.7419 0.7748 0.7740 0.7407
        Q-s-low E-s-low   Q-p-low E-p-low   Q-d-low E-d-low   Q-f-low E-f-low
:EPL002:  0.0003 -2.7854    2.9945 -3.0684    0.0008 -2.7845    0.0003 -2.7854
        Q-s-hi  E-s-hi    Q-p-hi  E-p-hi    Q-d-hi  E-d-hi    Q-f-hi  E-f-hi 
:EPH002:  0.2342  0.4031    0.2497  0.5365    3.7479  0.6974    0.0208  0.5793

                      VXX         VYY         VZZ       UP TO R
:VZZ002:             0.43029    -2.35361     1.92332       2.430

:POS003: ATOM   -3 X,Y,Z = 0.00000 0.25000 0.25000  MULT= 2  ZZ= 45.000  Rh1       

       LMMAX 28
       LM=   0 0  1 1 -1 1  2 0  2 2 -2 2  3 1 -3 1  3 3 -3 3  4 0  4 2 -4 2  4 4 -4 4  5 1 -5 1
         5 3 -5 3  5 5 -5 5  6 0  6 2 -6 2  6 4 -6 4  6 6 -6 6

:CHA003: TOTAL VALENCE CHARGE INSIDE SPHERE   3 =   7.5068    (RMT=  2.4300 )
:PCS003: PARTIAL CHARGES SPHERE =  3 S,P,D,F,PX,PY,PZ,D-Z2,D-X2Y2,D-XY,D-XZ,D-YZ 
:QTL003: 0.2114 3.2038 4.0564 0.0269 1.0652 1.0721 1.0664 0.8391 0.7837 0.8256 0.8045 0.8035
        Q-s-low E-s-low   Q-p-low E-p-low   Q-d-low E-d-low   Q-f-low E-f-low
:EPL003:  0.0003 -2.7898    2.9810 -2.7279    0.0009 -2.7882    0.0004 -2.7898
        Q-s-hi  E-s-hi    Q-p-hi  E-p-hi    Q-d-hi  E-d-hi    Q-f-hi  E-f-hi 
:EPH003:  0.2111  0.3876    0.2228  0.5581    4.0556  0.5166    0.0265  0.5894

                      QXX         QXY         QYY         QZZ       UP TO R
:VZZ003:             2.66574     0.27412    -1.85757    -0.80817       2.430

:POS004: ATOM   -4 X,Y,Z = 0.50000 0.00000 0.25000  MULT= 1  ZZ= 26.000  Fe3       

       LMMAX 16
       LM=   0 0  1 0  2 0  2 2  3 0  3 2  4 0  4 2  4 4  5 0  5 2  5 4  6 0  6 2  6 4  6 6

:CHA004: TOTAL VALENCE CHARGE INSIDE SPHERE   4 =   4.3409    (RMT=  2.4300 )
:PCS004: PARTIAL CHARGES SPHERE =  4 S,P,D,F,PX,PY,PZ,D-Z2,D-X2Y2,D-XY,D-XZ,D-YZ 
:QTL004: 0.2115 3.2155 0.8874 0.0190 1.0735 1.0791 1.0629 0.1827 0.1280 0.2234 0.2326 0.1206
        Q-s-low E-s-low   Q-p-low E-p-low   Q-d-low E-d-low   Q-f-low E-f-low
:EPL004:  0.0003 -2.7847    2.9940 -2.8839    0.0008 -2.7838    0.0003 -2.7842
        Q-s-hi  E-s-hi    Q-p-hi  E-p-hi    Q-d-hi  E-d-hi    Q-f-hi  E-f-hi 
:EPH004:  0.2112  0.4405    0.2216  0.5607    0.8866  0.6788    0.0187  0.5761

                      VXX         VYY         VZZ       UP TO R
:VZZ004:            -1.69772     0.89462     0.80311       2.430

:POS005: ATOM   -5 X,Y,Z = 0.50000 0.00000 0.75000  MULT= 1  ZZ= 26.000  Fe4       

       LMMAX 16
       LM=   0 0  1 0  2 0  2 2  3 0  3 2  4 0  4 2  4 4  5 0  5 2  5 4  6 0  6 2  6 4  6 6

:CHA005: TOTAL VALENCE CHARGE INSIDE SPHERE   5 =   7.2563    (RMT=  2.4300 )
:PCS005: PARTIAL CHARGES SPHERE =  5 S,P,D,F,PX,PY,PZ,D-Z2,D-X2Y2,D-XY,D-XZ,D-YZ 
:QTL005: 0.2346 3.2443 3.7488 0.0211 1.0834 1.0852 1.0757 0.7172 0.7419 0.7748 0.7740 0.7407
        Q-s-low E-s-low   Q-p-low E-p-low   Q-d-low E-d-low   Q-f-low E-f-low
:EPL005:  0.0003 -2.7854    2.9945 -3.0684    0.0008 -2.7845    0.0003 -2.7854
        Q-s-hi  E-s-hi    Q-p-hi  E-p-hi    Q-d-hi  E-d-hi    Q-f-hi  E-f-hi 
:EPH005:  0.2342  0.4031    0.2497  0.5365    3.7480  0.6974    0.0208  0.5793

                      VXX         VYY         VZZ       UP TO R
:VZZ005:             0.43025    -2.35345     1.92320       2.430

:POS006: ATOM   -6 X,Y,Z = 0.50000 0.25000 0.50000  MULT= 2  ZZ= 45.000  Rh3       

       LMMAX 28
       LM=   0 0  1 1 -1 1  2 0  2 2 -2 2  3 1 -3 1  3 3 -3 3  4 0  4 2 -4 2  4 4 -4 4  5 1 -5 1
         5 3 -5 3  5 5 -5 5  6 0  6 2 -6 2  6 4 -6 4  6 6 -6 6

:CHA006: TOTAL VALENCE CHARGE INSIDE SPHERE   6 =   7.5068    (RMT=  2.4300 )
:PCS006: PARTIAL CHARGES SPHERE =  6 S,P,D,F,PX,PY,PZ,D-Z2,D-X2Y2,D-XY,D-XZ,D-YZ 
:QTL006: 0.2114 3.2038 4.0564 0.0269 1.0652 1.0721 1.0664 0.8391 0.7837 0.8256 0.8045 0.8035
        Q-s-low E-s-low   Q-p-low E-p-low   Q-d-low E-d-low   Q-f-low E-f-low
:EPL006:  0.0003 -2.7898    2.9810 -2.7279    0.0009 -2.7882    0.0004 -2.7898
        Q-s-hi  E-s-hi    Q-p-hi  E-p-hi    Q-d-hi  E-d-hi    Q-f-hi  E-f-hi 
:EPH006:  0.2111  0.3876    0.2228  0.5581    4.0556  0.5166    0.0265  0.5894

                      QXX         QXY         QYY         QZZ       UP TO R
:VZZ006:             2.66588     0.27404    -1.85793    -0.80795       2.430

:CHA  : TOTAL VALENCE CHARGE INSIDE UNIT CELL =      58.000000

:SUM  : SUM OF EIGENVALUES =         -49.469598007


        1.ATOM      Fe1                   5 CORE STATES
       CORE-FORCE in mRy/a.u. = |F|      Fx             Fy             Fz
:FCO001:   1.ATOM      1.480408519292      0.000000000000      0.000000000000      1.480408519292

:1S 001: 1S                -512.826530292 Ry
:2S 001: 2S                 -58.775493070 Ry
:2PP001: 2P*                -50.468522451 Ry
:2P 001: 2P                 -49.551913523 Ry
:3S 001: 3S                  -5.555981772 Ry

        2.ATOM      Fe2                   5 CORE STATES
       CORE-FORCE in mRy/a.u. = |F|      Fx             Fy             Fz
:FCO002:   2.ATOM      1.777399373349      0.000000000000      0.000000000000     -1.777399373349

:1S 002: 1S                -512.825763821 Ry
:2S 002: 2S                 -58.694029407 Ry
:2PP002: 2P*                -50.407814935 Ry
:2P 002: 2P                 -49.489438372 Ry
:3S 002: 3S                  -5.367786043 Ry

        3.ATOM      Rh1                  10 CORE STATES
       CORE-FORCE in mRy/a.u. = |F|      Fx             Fy             Fz
:FCO003:   3.ATOM      2.993451795540     -2.993451601114      0.001078890512      0.000000000000

:1S 003: 1S               -1691.402023970 Ry
:2S 003: 2S                -244.311270768 Ry
:2PP003: 2P*               -226.119489532 Ry
:2P 003: 2P                -215.490682723 Ry
:3S 003: 3S                 -42.849694554 Ry
:3PP003: 3P*                -35.731560428 Ry
:3P 003: 3P                 -33.903184556 Ry
:3DD003: 3D*                -21.305896030 Ry
:3D 003: 3D                 -20.945332757 Ry
:4S 003: 4S                  -5.085693088 Ry

        4.ATOM      Fe3                   5 CORE STATES
       CORE-FORCE in mRy/a.u. = |F|      Fx             Fy             Fz
:FCO004:   4.ATOM      1.479236427787      0.000000000000      0.000000000000     -1.479236427787

:1S 004: 1S                -512.826535206 Ry
:2S 004: 2S                 -58.775498921 Ry
:2PP004: 2P*                -50.468528386 Ry
:2P 004: 2P                 -49.551919455 Ry
:3S 004: 3S                  -5.555985468 Ry

        5.ATOM      Fe4                   5 CORE STATES
       CORE-FORCE in mRy/a.u. = |F|      Fx             Fy             Fz
:FCO005:   5.ATOM      1.775511880116      0.000000000000      0.000000000000      1.775511880116

:1S 005: 1S                -512.825768749 Ry
:2S 005: 2S                 -58.694035262 Ry
:2PP005: 2P*                -50.407820886 Ry
:2P 005: 2P                 -49.489444319 Ry
:3S 005: 3S                  -5.367795237 Ry

        6.ATOM      Rh3                  10 CORE STATES
       CORE-FORCE in mRy/a.u. = |F|      Fx             Fy             Fz
:FCO006:   6.ATOM      2.998362756593      2.998362558247     -0.001090609759      0.000000000000

:1S 006: 1S               -1691.402021060 Ry
:2S 006: 2S                -244.311274638 Ry
:2PP006: 2P*               -226.119493749 Ry
:2P 006: 2P                -215.490687000 Ry
:3S 006: 3S                 -42.849699376 Ry
:3PP006: 3P*                -35.731565301 Ry
:3P 006: 3P                 -33.903189422 Ry
:3DD006: 3D*                -21.305900901 Ry
:3D 006: 3D                 -20.945337624 Ry
:4S 006: 4S                  -5.085696490 Ry

        1.ATOM      Fe1                   5 CORE STATES
       CORE-FORCE in mRy/a.u. = |F|      Fx             Fy             Fz
:FCO001:   1.ATOM      1.777399372379      0.000000000000      0.000000000000     -1.777399372379

:1S 001: 1S                -512.825763821 Ry
:2S 001: 2S                 -58.694029407 Ry
:2PP001: 2P*                -50.407814935 Ry
:2P 001: 2P                 -49.489438372 Ry
:3S 001: 3S                  -5.367786043 Ry

        2.ATOM      Fe2                   5 CORE STATES
       CORE-FORCE in mRy/a.u. = |F|      Fx             Fy             Fz
:FCO002:   2.ATOM      1.480408513784      0.000000000000      0.000000000000      1.480408513784

:1S 002: 1S                -512.826530292 Ry
:2S 002: 2S                 -58.775493070 Ry
:2PP002: 2P*                -50.468522451 Ry
:2P 002: 2P                 -49.551913523 Ry
:3S 002: 3S                  -5.555981772 Ry

        3.ATOM      Rh1                  10 CORE STATES
       CORE-FORCE in mRy/a.u. = |F|      Fx             Fy             Fz
:FCO003:   3.ATOM      2.993451826018      2.993451631590      0.001078897962      0.000000000000

:1S 003: 1S               -1691.402023970 Ry
:2S 003: 2S                -244.311270768 Ry
:2PP003: 2P*               -226.119489532 Ry
:2P 003: 2P                -215.490682723 Ry
:3S 003: 3S                 -42.849694554 Ry
:3PP003: 3P*                -35.731560428 Ry
:3P 003: 3P                 -33.903184556 Ry
:3DD003: 3D*                -21.305896030 Ry
:3D 003: 3D                 -20.945332757 Ry
:4S 003: 4S                  -5.085693088 Ry

        4.ATOM      Fe3                   5 CORE STATES
       CORE-FORCE in mRy/a.u. = |F|      Fx             Fy             Fz
:FCO004:   4.ATOM      1.775511880082      0.000000000000      0.000000000000      1.775511880082

:1S 004: 1S                -512.825768749 Ry
:2S 004: 2S                 -58.694035262 Ry
:2PP004: 2P*                -50.407820886 Ry
:2P 004: 2P                 -49.489444319 Ry
:3S 004: 3S                  -5.367795237 Ry

        5.ATOM      Fe4                   5 CORE STATES
       CORE-FORCE in mRy/a.u. = |F|      Fx             Fy             Fz
:FCO005:   5.ATOM      1.479236427833      0.000000000000      0.000000000000     -1.479236427833

:1S 005: 1S                -512.826535206 Ry
:2S 005: 2S                 -58.775498921 Ry
:2PP005: 2P*                -50.468528386 Ry
:2P 005: 2P                 -49.551919455 Ry
:3S 005: 3S                  -5.555985468 Ry

        6.ATOM      Rh3                  10 CORE STATES
       CORE-FORCE in mRy/a.u. = |F|      Fx             Fy             Fz
:FCO006:   6.ATOM      2.998362754469     -2.998362556123     -0.001090609763      0.000000000000

:1S 006: 1S               -1691.402021060 Ry
:2S 006: 2S                -244.311274638 Ry
:2PP006: 2P*               -226.119493749 Ry
:2P 006: 2P                -215.490687000 Ry
:3S 006: 3S                 -42.849699376 Ry
:3PP006: 3P*                -35.731565301 Ry
:3P 006: 3P                 -33.903189422 Ry
:3DD006: 3D*                -21.305900901 Ry
:3D 006: 3D                 -20.945337624 Ry
:4S 006: 4S                  -5.085696490 Ry
:CINT001 Core Integral Atom   1 Up    5.999605 Dn   5.999579 Total  11.999184
:CINT002 Core Integral Atom   2 Up    5.999579 Dn   5.999605 Total  11.999184
:CINT003 Core Integral Atom   3 Up   14.998712 Dn  14.998712 Total  29.997424
:CINT004 Core Integral Atom   4 Up    5.999606 Dn   5.999578 Total  11.999184
:CINT005 Core Integral Atom   5 Up    5.999578 Dn   5.999606 Total  11.999184
:CINT006 Core Integral Atom   6 Up   14.998712 Dn  14.998712 Total  29.997424

       DENSITY AT NUCLEUS
        JATOM        VALENCE       SEMI-CORE          CORE           TOTAL
:RTO001:   1        6.535661        0.000000    15301.441238    15307.976899
:RTO002:   2        6.535661        0.000000    15301.441238    15307.976899
:RTO003:   3       23.175672        0.000000   129453.698754   129476.874426
:RTO004:   4        6.940108        0.000000    16256.630243    16263.570352
:RTO005:   5        6.940108        0.000000    16256.630243    16263.570352
:RTO006:   6       27.798313        0.000000   155312.221325   155340.019638

       HYPERFINE FIELDS FOR THOMSON RADIUS
:HFF001:          188.780           0.000        -274.860         -86.080 (KGAUSS)
:HFF002:         -188.780           0.000         274.860          86.080 (KGAUSS)
:HFF003:           -0.000           0.000          -0.000          -0.000 (KGAUSS)
:HFF004:          188.758           0.000        -274.656         -85.897 (KGAUSS)
:HFF005:         -188.758           0.000         274.656          85.897 (KGAUSS)
:HFF006:           -0.000           0.000           0.000          -0.000 (KGAUSS)
     
       CHARGES OF NEW CHARGE DENSITY
:NTO   : INTERSTITIAL     UP =     4.778630 DN =     4.778630 TOT =     9.557260
:NPC   : PW Pseudocharge  UP =    11.388905 DN =    11.388905 TOT =    22.777810
:NTO001: CHARGE SPHERE  1 UP =    13.255833 DN =    10.340395 TOT =    23.596228
:NTO002: CHARGE SPHERE  2 UP =    10.340395 DN =    13.255833 TOT =    23.596228
:NTO003: CHARGE SPHERE  3 UP =    22.505477 DN =    22.505477 TOT =    45.010954
:NTO004: CHARGE SPHERE  4 UP =    13.255885 DN =    10.340470 TOT =    23.596355
:NTO005: CHARGE SPHERE  5 UP =    10.340470 DN =    13.255885 TOT =    23.596355
:NTO006: CHARGE SPHERE  6 UP =    22.505491 DN =    22.505491 TOT =    45.010982

:NEC01: NUCLEAR AND ELECTRONIC CHARGE    284.00000   283.98630
     
       CHARGES OF OLD CHARGE DENSITY
:OTO   : INTERSTITIAL     UP =     4.123074 DN =     4.123074 TOT =     8.246148
:OPC   : PW Pseudocharge  UP =    18.884024 DN =    18.884024 TOT =    37.768047
:OTO001: CHARGE SPHERE  1 UP =    13.948115 DN =    11.366554 TOT =    25.314668
:OTO002: CHARGE SPHERE  2 UP =    11.366554 DN =    13.948115 TOT =    25.314668
:OTO003: CHARGE SPHERE  3 UP =    21.812875 DN =    21.812875 TOT =    43.625750
:OTO004: CHARGE SPHERE  4 UP =    13.948110 DN =    11.366548 TOT =    25.314658
:OTO005: CHARGE SPHERE  5 UP =    11.366548 DN =    13.948110 TOT =    25.314658
:OTO006: CHARGE SPHERE  6 UP =    21.812868 DN =    21.812868 TOT =    43.625735

:NEC02: NUCLEAR AND ELECTRONIC CHARGE    284.00000   284.00777
     
       CONVERGENCE TEST
:DTO001: DIFFERENCE SPHERE  1 UP =  0.8557235 DN =  1.2594824 TOT =  2.1152059
:DTO002: DIFFERENCE SPHERE  2 UP =  1.2594823 DN =  0.8557234 TOT =  2.1152057
:DTO003: DIFFERENCE SPHERE  3 UP =  0.4825103 DN =  0.4825103 TOT =  0.9650206
:DTO004: DIFFERENCE SPHERE  4 UP =  0.8556484 DN =  1.2594310 TOT =  2.1150794
:DTO005: DIFFERENCE SPHERE  5 UP =  1.2594309 DN =  0.8556484 TOT =  2.1150793
:DTO006: DIFFERENCE SPHERE  6 UP =  0.4825250 DN =  0.4825250 TOT =  0.9650499

:DIS  :  CHARGE DISTANCE       ( 1.2594824 for atom    1 spin 2)      3.0801778
 PW Mixed is          702
 
******************************************************
* MULTISECANT MIXING VER9 RELEASE 10.4.0              *
* Standard Mode with controls                        *
* Fixed density scale                                *
* Regularization       1.000E-04                     *
* Trust Upper Limit    5.000E+00                     *
* Max Number of Memory Steps    8                    *
******************************************************
 
:PWTMP   2.3530E+02  9.1833E+02  7.1614E+02
:PLANE:  PW TOTAL      5.9958 DISTAN   3.61E+00  6.03E+01 %
:CHARG:  CLM/ATOM    149.9579 DISTAN   5.60E-01  3.73E-01 %
INFO: Reducing dbase  2.50000E-02 3.08018E+00 1.42447E-02
 
Step History
        DMIX         DMIXT        Red     Pred      Trust     Lambda    MagRel    MagAbs     Beta
  1   3.5000E-02   3.5000E-02 -1.00E+00  1.00E+00 -1.00E+01  1.00E+00  3.50E-02  3.50E-02  1.00E+00
:INFO :  Note, Pratt in use
INFO: Reducing dbase  1.42447E-02 3.08018E+00 8.11641E-03
:TRUST:  Step 1.56E-02  Charge 7.50E-02 (e) CTO  2.50E-01 (e) PW  3.50E-01 (e)
:DIRM :  MEMORY  0/ 8 SCALE   1.000
Performing Pseudo Compensation
Final Pseudo Compensation Rescaling     9.98565E-01
Final Pseudo Compensation Rescaling     9.98565E-01
:MIX  :   PRATT  REGULARIZATION:  1.00E-04 GREED: 0.01042                  
     
       CHARGES OF MIXED CHARGE DENSITY
:CTO   : INTERSTITIAL     UP =     4.126133 DN =     4.126133 TOT =     8.252267
:CPC   : PW Pseudocharge  UP =    13.751914 DN =    13.751914 TOT =    27.503828
:CTO001: CHARGE SPHERE  1 UP =    13.940900 DN =    11.355859 TOT =    25.296758
:CTO002: CHARGE SPHERE  2 UP =    11.355859 DN =    13.940900 TOT =    25.296758
:CTO003: CHARGE SPHERE  3 UP =    21.820093 DN =    21.820093 TOT =    43.640187
:CTO004: CHARGE SPHERE  4 UP =    13.940895 DN =    11.355854 TOT =    25.296749
:CTO005: CHARGE SPHERE  5 UP =    11.355854 DN =    13.940895 TOT =    25.296749
:CTO006: CHARGE SPHERE  6 UP =    21.820086 DN =    21.820086 TOT =    43.640173

       SPIN MAGNETIC MOMENTS OF MIXED CHARGE DENSITY
:MMINT:  MAGNETIC MOMENT IN INTERSTITIAL  =   -0.00000
:MMI001: MAGNETIC MOMENT IN SPHERE   1    =    2.58504
:MMI002: MAGNETIC MOMENT IN SPHERE   2    =   -2.58504
:MMI003: MAGNETIC MOMENT IN SPHERE   3    =    0.00000
:MMI004: MAGNETIC MOMENT IN SPHERE   4    =    2.58504
:MMI005: MAGNETIC MOMENT IN SPHERE   5    =   -2.58504
:MMI006: MAGNETIC MOMENT IN SPHERE   6    =    0.00000
:MMTOT:  SPIN MAGNETIC MOMENT IN CELL     =    0.00000

:NEC03: NUCLEAR AND ELECTRONIC CHARGE    284.00000   284.00000

PW CHANGE     H    K    L             Current                    Change               Residue
:PUP001:      0    0    0  2.49644347E-02 0.00000000E+00 -7.132E-03  0.000E+00 -9.488E-03  0.000E+00
:PUP002:      0   -1    1  1.93833814E-03-1.93834838E-03 -9.722E-04  9.724E-04 -1.807E-03  1.807E-03
:PUP003:      0   -1   -1  1.93833814E-03 1.93834838E-03 -9.722E-04 -9.724E-04 -1.807E-03 -1.807E-03
:PUP004:      0   -2    0 -8.05481712E-03-1.83469206E-18  2.736E-03 -1.835E-18  4.574E-03  0.000E+00
:PUP005:      0    0    2  2.12574285E-07 7.84246425E-07 -3.624E-07  7.842E-07 -6.173E-07  7.525E-05
:PUP006:      0    0   -2  2.12574285E-07-7.84246425E-07 -3.624E-07 -7.842E-07 -6.173E-07 -7.525E-05
:PUP007:     -1    0    0 -8.17439855E-07-6.56848657E-19  1.522E-06 -6.568E-19  2.202E-06  0.000E+00
:PUP008:      0   -2    2 -8.16601135E-07 2.01827195E-06  1.523E-06  2.018E-06  2.282E-06  1.936E-04
:PUP009:      0   -2   -2 -8.16601135E-07-2.01827195E-06  1.523E-06 -2.018E-06  2.282E-06 -1.936E-04
:PUP010:     -1   -1    1  8.87090237E-04 8.87089453E-04 -1.406E-03 -1.406E-03 -1.461E-03 -1.461E-03
:PUP011:     -1   -1   -1  8.87090237E-04-8.87089453E-04 -1.406E-03  1.406E-03 -1.461E-03  1.461E-03
:PUP012:      0   -3    1  4.43756187E-04-4.43756624E-04 -7.029E-04  7.030E-04 -7.101E-04  7.102E-04
  
:PDN001:      0    0    0  2.49644347E-02 0.00000000E+00 -7.132E-03  0.000E+00 -9.488E-03  0.000E+00
:PDN002:      0   -1    1 -1.93833814E-03 1.93834838E-03  9.722E-04 -9.724E-04  1.807E-03 -1.807E-03
:PDN003:      0   -1   -1 -1.93833814E-03-1.93834838E-03  9.722E-04  9.724E-04  1.807E-03  1.807E-03
:PDN004:      0   -2    0 -8.05481712E-03-1.83469206E-18  2.736E-03 -1.835E-18  4.574E-03  0.000E+00
:PDN005:      0    0    2  2.12574285E-07 7.84246425E-07 -3.624E-07  7.842E-07 -6.173E-07  7.525E-05
:PDN006:      0    0   -2  2.12574285E-07-7.84246425E-07 -3.624E-07 -7.842E-07 -6.173E-07 -7.525E-05
:PDN007:     -1    0    0 -8.17439856E-07-6.56848657E-19  1.522E-06 -6.568E-19  2.202E-06  0.000E+00
:PDN008:      0   -2    2 -8.16601136E-07 2.01827195E-06  1.523E-06  2.018E-06  2.282E-06  1.936E-04
:PDN009:      0   -2   -2 -8.16601136E-07-2.01827195E-06  1.523E-06 -2.018E-06  2.282E-06 -1.936E-04
:PDN010:     -1   -1    1 -8.87090237E-04-8.87089453E-04  1.406E-03  1.406E-03  1.461E-03  1.461E-03
:PDN011:     -1   -1   -1 -8.87090237E-04 8.87089453E-04  1.406E-03 -1.406E-03  1.461E-03 -1.461E-03
:PDN012:      0   -3    1 -4.43756187E-04 4.43756624E-04  7.029E-04 -7.030E-04  7.101E-04 -7.102E-04

:ENE  : ********** TOTAL ENERGY IN Ry =       -48465.20254780

       TOTAL FORCE IN mRy/a.u. = |F|     Fx             Fy             Fz     with/without FOR in case.in2
:FOR001:   1.ATOM          0.148          0.000          0.000         -0.148 partial forces
:FOR002:   2.ATOM          0.148          0.000          0.000         -0.148 partial forces
:FOR003:   3.ATOM          0.001          0.000          0.001          0.000 partial forces
:FOR004:   4.ATOM          0.148          0.000          0.000          0.148 partial forces
:FOR005:   5.ATOM          0.148          0.000          0.000          0.148 partial forces
:FOR006:   6.ATOM          0.001         -0.000         -0.001          0.000 partial forces
       TOTAL FORCE WITH RESPECT TO GLOBAL CARTESIAN COORDINATES:
:FCA001:   1.ATOM                         0.000          0.000         -0.148 partial forces
:FCA002:   2.ATOM                         0.000          0.000         -0.148 partial forces
:FCA003:   3.ATOM                         0.000          0.000          0.001 partial forces
:FCA004:   4.ATOM                         0.000          0.000          0.148 partial forces
:FCA005:   5.ATOM                         0.000          0.000          0.148 partial forces
:FCA006:   6.ATOM                         0.000         -0.000         -0.001 partial forces
       TOTAL FORCE WITH RESPECT TO THE GLOBAL COORDINATE SYSTEM:
:FGL001:   1.ATOM                 0.000000000     0.000000000    -0.148495426 partial forces
:FGL002:   2.ATOM                 0.000000000     0.000000000    -0.148495430 partial forces
:FGL003:   3.ATOM                 0.000000000     0.000000008     0.001078905 partial forces
:FGL004:   4.ATOM                 0.000000000     0.000000000     0.148137726 partial forces
:FGL005:   5.ATOM                 0.000000000     0.000000000     0.148137726 partial forces
:FGL006:   6.ATOM                 0.000000000    -0.000000002    -0.001090626 partial forces

:LABEL1: Calculations in /home/cmueller/wien/FZU/src/FeRh/supercell/largeAFM_correct
:LABEL2: on cv036 at Sat Mar 15 01:53:53 PM CET 2025
:LABEL3: using WIEN2k_19.1 (Release 25/6/2019) in /home/cmueller/WIENROOT
:LABEL4: using the command: runsp_lapw
 Flat Integration
 New Mode for Coulomb Integral
 Consistent 3/8+Simpson combinations
 Extension of core to zero
 LDM version in phi
 Fifth-order quadrature in outwin


            ---------
:ITE002:  2. ITERATION
            ---------

:NATO :    6 INDEPENDENT AND    8 TOTAL ATOMS IN UNITCELL
       SUBSTANCE: FeRh                                                        

       LATTICE                      = CYZ 
:POT  : POTENTIAL OPTION EX_PBE EC_PBE VX_PBE VC_PBE
:LAT  : LATTICE CONSTANTS=  5.63611 15.94133 15.94133    1.571    1.571    1.571
:VOL  : UNIT CELL VOLUME =     716.14069
       MODE OF CALCULATION IS       = RELA
       SPINPOLARIZED CALCULATION
:IFFT  : FFT-parameters:   48  128  128 Factor: 2.00


   CONVERGENCE PARAMETER FOR PSEUDOCHARGE: NCON=  9
   MAXIMAL VALUE OF RMT(JATOM)*ABSK(NKK) : RK  =29.11372


:VKCOUL :  VK-COUL convergence: 0.101E-08
       ATOMNUMBER=  1 Fe1        VCOUL-ZERO =  0.68975E+00
:EFG001:                        EFG         =    -0.01685   *10**21  V / m**2
                               V20  TOT/SRF=     0.00519    -0.05194
                               V22  TOT/SRF=    -0.01385    -0.04569
                               V22M TOT/SRF=     0.00000     0.00000
                               V21  TOT/SRF=     0.00000     0.00000
                               V21M TOT/SRF=     0.00000     0.00000

             -0.01685    0.00000    0.00000       -0.01685    0.00000    0.00000
              0.00000    0.01085    0.00000        0.00000    0.01085    0.00000
              0.00000    0.00000    0.00600        0.00000    0.00000    0.00600

         MAIN DIRECTIONS OF THE EFG   1.0000  0.0000  0.0000
                                      0.0000  1.0000  0.0000
                                      0.0000  0.0000  1.0000
:ANG001:  ANGLE WITH OLD X-AXIS =         0.0

:ETA001:                         ASYMM. ETA =     0.28821


       ATOMNUMBER=  2 Fe2        VCOUL-ZERO =  0.68975E+00
:EFG002:                        EFG         =    -0.01685   *10**21  V / m**2
                               V20  TOT/SRF=     0.00519    -0.05194
                               V22  TOT/SRF=    -0.01385    -0.04569
                               V22M TOT/SRF=     0.00000     0.00000
                               V21  TOT/SRF=     0.00000     0.00000
                               V21M TOT/SRF=     0.00000     0.00000

             -0.01685    0.00000    0.00000       -0.01685    0.00000    0.00000
              0.00000    0.01085    0.00000        0.00000    0.01085    0.00000
              0.00000    0.00000    0.00600        0.00000    0.00000    0.00600

         MAIN DIRECTIONS OF THE EFG   1.0000  0.0000  0.0000
                                      0.0000  1.0000  0.0000
                                      0.0000  0.0000  1.0000
:ANG002:  ANGLE WITH OLD X-AXIS =         0.0

:ETA002:                         ASYMM. ETA =     0.28821


       ATOMNUMBER=  3 Rh1        VCOUL-ZERO =  0.58449E+00
:EFG003:                        EFG         =     0.02962   *10**21  V / m**2
                               V20  TOT/SRF=    -0.01137     0.01354
                               V22  TOT/SRF=     0.02305    -0.06769
                               V22M TOT/SRF=     0.00000     0.00000
                               V21  TOT/SRF=     0.00000     0.00000
                               V21M TOT/SRF=     0.00000     0.00000

              0.02962    0.00000    0.00000        0.02962    0.00000    0.00000
              0.00000   -0.01649    0.00000        0.00000   -0.01649    0.00000
              0.00000    0.00000   -0.01313        0.00000    0.00000   -0.01313

         MAIN DIRECTIONS OF THE EFG   1.0000 -0.0000  0.0000
                                      0.0000  1.0000  0.0000
                                      0.0000  0.0000  1.0000
:ANG003:  ANGLE WITH OLD X-AXIS =         0.0

:ETA003:                         ASYMM. ETA =     0.11320


       ATOMNUMBER=  4 Fe3        VCOUL-ZERO =  0.68975E+00
:EFG004:                        EFG         =    -0.01685   *10**21  V / m**2
                               V20  TOT/SRF=     0.00519    -0.05194
                               V22  TOT/SRF=    -0.01386    -0.04569
                               V22M TOT/SRF=     0.00000     0.00000
                               V21  TOT/SRF=     0.00000     0.00000
                               V21M TOT/SRF=     0.00000     0.00000

             -0.01685    0.00000    0.00000       -0.01685    0.00000    0.00000
              0.00000    0.01087    0.00000        0.00000    0.01087    0.00000
              0.00000    0.00000    0.00599        0.00000    0.00000    0.00599

         MAIN DIRECTIONS OF THE EFG   1.0000  0.0000  0.0000
                                      0.0000  1.0000  0.0000
                                      0.0000  0.0000  1.0000
:ANG004:  ANGLE WITH OLD X-AXIS =         0.0

:ETA004:                         ASYMM. ETA =     0.28937


       ATOMNUMBER=  5 Fe4        VCOUL-ZERO =  0.68975E+00
:EFG005:                        EFG         =    -0.01685   *10**21  V / m**2
                               V20  TOT/SRF=     0.00519    -0.05194
                               V22  TOT/SRF=    -0.01386    -0.04569
                               V22M TOT/SRF=     0.00000     0.00000
                               V21  TOT/SRF=     0.00000     0.00000
                               V21M TOT/SRF=     0.00000     0.00000

             -0.01685    0.00000    0.00000       -0.01685    0.00000    0.00000
              0.00000    0.01087    0.00000        0.00000    0.01087    0.00000
              0.00000    0.00000    0.00599        0.00000    0.00000    0.00599

         MAIN DIRECTIONS OF THE EFG   1.0000  0.0000  0.0000
                                      0.0000  1.0000  0.0000
                                      0.0000  0.0000  1.0000
:ANG005:  ANGLE WITH OLD X-AXIS =         0.0

:ETA005:                         ASYMM. ETA =     0.28937


       ATOMNUMBER=  6 Rh3        VCOUL-ZERO =  0.58449E+00
:EFG006:                        EFG         =     0.02961   *10**21  V / m**2
                               V20  TOT/SRF=    -0.01139     0.01354
                               V22  TOT/SRF=     0.02304    -0.06769
                               V22M TOT/SRF=    -0.00000     0.00000
                               V21  TOT/SRF=     0.00000     0.00000
                               V21M TOT/SRF=     0.00000     0.00000

              0.02961   -0.00000    0.00000        0.02961    0.00000    0.00000
             -0.00000   -0.01647    0.00000        0.00000   -0.01647    0.00000
              0.00000    0.00000   -0.01315        0.00000    0.00000   -0.01315

         MAIN DIRECTIONS OF THE EFG   1.0000  0.0000  0.0000
                                     -0.0000  1.0000  0.0000
                                      0.0000  0.0000  1.0000
:ANG006:  ANGLE WITH OLD X-AXIS =         0.0

:ETA006:                         ASYMM. ETA =     0.11215


     HELLMANN-FEYNMAN-FORCE IN mRy/a.u. = |F|  Fx       Fy             Fz
:FHF001:   1.ATOM      1.603507402565      0.000000000000      0.000000000000     -1.603507402565

     HELLMANN-FEYNMAN-FORCE IN mRy/a.u. = |F|  Fx       Fy             Fz
:FHF002:   2.ATOM      1.603506582807      0.000000000000      0.000000000000     -1.603506582807

     HELLMANN-FEYNMAN-FORCE IN mRy/a.u. = |F|  Fx       Fy             Fz
:FHF003:   3.ATOM      1.741952357986      0.000000689540     -1.741952357986      0.000000000000

     HELLMANN-FEYNMAN-FORCE IN mRy/a.u. = |F|  Fx       Fy             Fz
:FHF004:   4.ATOM      1.603343351095      0.000000000000      0.000000000000      1.603343351095

     HELLMANN-FEYNMAN-FORCE IN mRy/a.u. = |F|  Fx       Fy             Fz
:FHF005:   5.ATOM      1.603335799215      0.000000000000      0.000000000000      1.603335799215

     HELLMANN-FEYNMAN-FORCE IN mRy/a.u. = |F|  Fx       Fy             Fz
:FHF006:   6.ATOM      1.741758130110     -0.000006529225      1.741758130098      0.000000000000

:FIT001: LUSE= 13 SIGMA OF V-XC FIT FOR ATOM  1  0.3755143E-02
:FIT001: LUSE= 13 SIGMA OF V-XC FIT FOR ATOM  1  0.3689220E-02
:FIT002: LUSE= 13 SIGMA OF V-XC FIT FOR ATOM  2  0.3689220E-02
:FIT002: LUSE= 13 SIGMA OF V-XC FIT FOR ATOM  2  0.3755143E-02
:FIT003: LUSE= 13 SIGMA OF V-XC FIT FOR ATOM  3  0.9736808E-03
:FIT003: LUSE= 13 SIGMA OF V-XC FIT FOR ATOM  3  0.9736808E-03
:FIT004: LUSE= 13 SIGMA OF V-XC FIT FOR ATOM  4  0.3532583E-02
:FIT004: LUSE= 13 SIGMA OF V-XC FIT FOR ATOM  4  0.3689448E-02
:FIT005: LUSE= 13 SIGMA OF V-XC FIT FOR ATOM  5  0.3689448E-02
:FIT005: LUSE= 13 SIGMA OF V-XC FIT FOR ATOM  5  0.3532583E-02
:FIT006: LUSE= 13 SIGMA OF V-XC FIT FOR ATOM  6  0.9449165E-03
:FIT006: LUSE= 13 SIGMA OF V-XC FIT FOR ATOM  6  0.9449165E-03
:DEN  : DENSITY INTEGRAL  =        -19747.60816324   (Ry)
       ELS_POTENTIAL_AT Z=0 and Z=0.5:  -0.74948  -0.74948
       ELS_POTENTIAL_AT Y=0 and Y=0.5:  -0.31757  -0.31757
:VZERO:v0,v0c,v0x  -1.58421  -0.74948  -0.83474 v5,v5c,v5x  -1.58421  -0.74948  -0.83474
:VZERY:v0,v0c,v0x  -1.08177  -0.31757  -0.76420 v5,v5c,v5x  -1.08177  -0.31757  -0.76420
:VZERX:v0,v0c,v0x  -1.08490  -0.28758  -0.79733 v5,v5c,v5x  -1.08497  -0.28763  -0.79734
:LMAX-WF:   10   Non-Spherical LMAX:   4

          ATOMIC SPHERE DEPENDENT PARAMETERS FOR ATOM  Fe1       
:e__0001: OVERALL ENERGY PARAMETER IS    0.5000
          OVERALL BASIS SET ON ATOM IS LAPW
:E1_0001: E( 1)=    0.5000
             APW+lo
:E1_0001: E( 1)=   -3.1316   E(BOTTOM)=   -3.164   E(TOP)=   -3.099  1  2   181
             LOCAL ORBITAL
:E2_0001: E( 2)=    0.6511   E(BOTTOM)=    0.409   E(TOP)=    0.894  0  1   124
             APW+lo
:E0_0001: E( 0)=    0.5000
             APW+lo

          ATOMIC SPHERE DEPENDENT PARAMETERS FOR ATOM  Fe2       
:e__0002: OVERALL ENERGY PARAMETER IS    0.5000
          OVERALL BASIS SET ON ATOM IS LAPW
:E1_0002: E( 1)=    0.5000
             APW+lo
:E1_0002: E( 1)=   -2.9468   E(BOTTOM)=   -2.981   E(TOP)=   -2.913  1  2   184
             LOCAL ORBITAL
:E2_0002: E( 2)=    0.5651   E(BOTTOM)=    0.565   E(TOP)= -200.000  0 -1    74
             APW+lo
:E0_0002: E( 0)=    0.5000
             APW+lo

          ATOMIC SPHERE DEPENDENT PARAMETERS FOR ATOM  Rh1       
:e__0003: OVERALL ENERGY PARAMETER IS    0.5000
          OVERALL BASIS SET ON ATOM IS LAPW
:E1_0003: E( 1)=    0.5000
             APW+lo
:E1_0003: E( 1)=   -2.7646   E(BOTTOM)=   -2.859   E(TOP)=   -2.670  2  3   173
             LOCAL ORBITAL
:E2_0003: E( 2)=    0.5167   E(BOTTOM)=    0.080   E(TOP)=    0.954  1  2   148
             APW+lo
:E0_0003: E( 0)=    0.5000
             APW+lo

          ATOMIC SPHERE DEPENDENT PARAMETERS FOR ATOM  Fe3       
:e__0004: OVERALL ENERGY PARAMETER IS    0.5000
          OVERALL BASIS SET ON ATOM IS LAPW
:E1_0004: E( 1)=    0.5000
             APW+lo
:E1_0004: E( 1)=   -3.1316   E(BOTTOM)=   -3.164   E(TOP)=   -3.099  1  2   178
             LOCAL ORBITAL
:E2_0004: E( 2)=    0.6511   E(BOTTOM)=    0.409   E(TOP)=    0.894  0  1   124
             APW+lo
:E0_0004: E( 0)=    0.5000
             APW+lo

          ATOMIC SPHERE DEPENDENT PARAMETERS FOR ATOM  Fe4       
:e__0005: OVERALL ENERGY PARAMETER IS    0.5000
          OVERALL BASIS SET ON ATOM IS LAPW
:E1_0005: E( 1)=    0.5000
             APW+lo
:E1_0005: E( 1)=   -2.9468   E(BOTTOM)=   -2.981   E(TOP)=   -2.913  1  2   186
             LOCAL ORBITAL
:E2_0005: E( 2)=    0.5651   E(BOTTOM)=    0.565   E(TOP)= -200.000  0 -1    75
             APW+lo
:E0_0005: E( 0)=    0.5000
             APW+lo

          ATOMIC SPHERE DEPENDENT PARAMETERS FOR ATOM  Rh3       
:e__0006: OVERALL ENERGY PARAMETER IS    0.5000
          OVERALL BASIS SET ON ATOM IS LAPW
:E1_0006: E( 1)=    0.5000
             APW+lo
:E1_0006: E( 1)=   -2.7646   E(BOTTOM)=   -2.859   E(TOP)=   -2.670  2  3   176
             LOCAL ORBITAL
:E2_0006: E( 2)=    0.5167   E(BOTTOM)=    0.080   E(TOP)=    0.954  1  2   148
             APW+lo
:E0_0006: E( 0)=    0.5000
             APW+lo

       K=   0.00000   0.00000   0.00000            1
:RKM  : MATRIX SIZE   397LOs:  96  RKM= 6.91  WEIGHT= 1.00  PGR:    
       EIGENVALUES ARE:
:EIG00001:      -3.1279793   -3.1273526   -3.1257993   -3.1247468   -3.1210886
:EIG00006:      -3.1193028   -2.9430110   -2.9428241   -2.9409616   -2.9396482
:EIG00011:      -2.9357978   -2.9338440   -2.7743812   -2.7518508   -2.7478317
:EIG00016:      -2.7478117   -2.7463459   -2.7430312   -2.7430271   -2.7404870
:EIG00021:      -2.7404832   -2.7380639   -2.7294676   -2.7208378    0.1035276
:EIG00026:       0.2406623    0.2878274    0.3195822    0.3420629    0.3451909
:EIG00031:       0.3458571    0.3467880    0.3636629    0.4105135    0.4408759
:EIG00036:       0.4810424    0.4825459    0.5017507    0.5018173    0.5289029
:EIG00041:       0.5303352    0.5398095    0.5404069    0.5467906    0.5596489
:EIG00046:       0.5903075    0.5941245    0.6451092    0.6495998    0.6634249
 
:EIG00051:       0.7099157    0.7354420    0.7374795    0.7415869    0.7431260
:EIG00056:       0.7445433    0.7458037    0.7588291    0.7669598    0.7738608
:EIG00061:       0.7757304    0.7975702    0.8341572    0.8460996    0.8902016
:EIG00066:       0.8945737    0.9043544    0.9102870    0.9261385    0.9334089
:EIG00071:       0.9534422    1.3308396    1.3308738    1.3583238    1.3683944
:EIG00076:       1.3740815    1.8039686    1.8489307    1.8792910    1.8809643
:EIG00081:       1.9308341    1.9329961    1.9680516    1.9768239    1.9801818
:EIG00086:       1.9980627    2.0127410    2.0172120    2.0283694    2.0353790
:EIG00091:       2.0368113    2.0561440    2.0576649    2.0599314    2.0752490
:EIG00096:       2.0833907    2.1153438    2.1311328    2.1316615    2.1747008
 
:EIG00101:       2.1826409
       ********************************************************

:KPT   :      NUMBER OF K-POINTS:   310
:LMAX-WF:   10   Non-Spherical LMAX:   4

          ATOMIC SPHERE DEPENDENT PARAMETERS FOR ATOM  Fe1       
:e__0001: OVERALL ENERGY PARAMETER IS    0.5000
          OVERALL BASIS SET ON ATOM IS LAPW
:E1_0001: E( 1)=    0.5000
             APW+lo
:E1_0001: E( 1)=   -2.9468   E(BOTTOM)=   -2.981   E(TOP)=   -2.913  1  2   203
             LOCAL ORBITAL
:E2_0001: E( 2)=    0.5651   E(BOTTOM)=    0.565   E(TOP)= -200.000  0 -1    74
             APW+lo
:E0_0001: E( 0)=    0.5000
             APW+lo

          ATOMIC SPHERE DEPENDENT PARAMETERS FOR ATOM  Fe2       
:e__0002: OVERALL ENERGY PARAMETER IS    0.5000
          OVERALL BASIS SET ON ATOM IS LAPW
:E1_0002: E( 1)=    0.5000
             APW+lo
:E1_0002: E( 1)=   -3.1316   E(BOTTOM)=   -3.164   E(TOP)=   -3.099  1  2   162
             LOCAL ORBITAL
:E2_0002: E( 2)=    0.6511   E(BOTTOM)=    0.409   E(TOP)=    0.894  0  1   124
             APW+lo
:E0_0002: E( 0)=    0.5000
             APW+lo

          ATOMIC SPHERE DEPENDENT PARAMETERS FOR ATOM  Rh1       
:e__0003: OVERALL ENERGY PARAMETER IS    0.5000
          OVERALL BASIS SET ON ATOM IS LAPW
:E1_0003: E( 1)=    0.5000
             APW+lo
:E1_0003: E( 1)=   -2.7646   E(BOTTOM)=   -2.859   E(TOP)=   -2.670  2  3   173
             LOCAL ORBITAL
:E2_0003: E( 2)=    0.5167   E(BOTTOM)=    0.080   E(TOP)=    0.954  1  2   148
             APW+lo
:E0_0003: E( 0)=    0.5000
             APW+lo

          ATOMIC SPHERE DEPENDENT PARAMETERS FOR ATOM  Fe3       
:e__0004: OVERALL ENERGY PARAMETER IS    0.5000
          OVERALL BASIS SET ON ATOM IS LAPW
:E1_0004: E( 1)=    0.5000
             APW+lo
:E1_0004: E( 1)=   -2.9468   E(BOTTOM)=   -2.981   E(TOP)=   -2.913  1  2   205
             LOCAL ORBITAL
:E2_0004: E( 2)=    0.5651   E(BOTTOM)=    0.565   E(TOP)= -200.000  0 -1    75
             APW+lo
:E0_0004: E( 0)=    0.5000
             APW+lo

          ATOMIC SPHERE DEPENDENT PARAMETERS FOR ATOM  Fe4       
:e__0005: OVERALL ENERGY PARAMETER IS    0.5000
          OVERALL BASIS SET ON ATOM IS LAPW
:E1_0005: E( 1)=    0.5000
             APW+lo
:E1_0005: E( 1)=   -3.1316   E(BOTTOM)=   -3.164   E(TOP)=   -3.099  1  2   159
             LOCAL ORBITAL
:E2_0005: E( 2)=    0.6511   E(BOTTOM)=    0.409   E(TOP)=    0.894  0  1   124
             APW+lo
:E0_0005: E( 0)=    0.5000
             APW+lo

          ATOMIC SPHERE DEPENDENT PARAMETERS FOR ATOM  Rh3       
:e__0006: OVERALL ENERGY PARAMETER IS    0.5000
          OVERALL BASIS SET ON ATOM IS LAPW
:E1_0006: E( 1)=    0.5000
             APW+lo
:E1_0006: E( 1)=   -2.7646   E(BOTTOM)=   -2.859   E(TOP)=   -2.670  2  3   176
             LOCAL ORBITAL
:E2_0006: E( 2)=    0.5167   E(BOTTOM)=    0.080   E(TOP)=    0.954  1  2   148
             APW+lo
:E0_0006: E( 0)=    0.5000
             APW+lo

       K=   0.00000   0.00000   0.00000            1
:RKM  : MATRIX SIZE   397LOs:  96  RKM= 6.91  WEIGHT= 1.00  PGR:    
       EIGENVALUES ARE:
:EIG00001:      -3.1279793   -3.1273526   -3.1257993   -3.1247468   -3.1210886
:EIG00006:      -3.1193028   -2.9430110   -2.9428241   -2.9409616   -2.9396482
:EIG00011:      -2.9357978   -2.9338440   -2.7743812   -2.7518508   -2.7478317
:EIG00016:      -2.7478117   -2.7463459   -2.7430312   -2.7430271   -2.7404870
:EIG00021:      -2.7404832   -2.7380639   -2.7294676   -2.7208378    0.1035276
:EIG00026:       0.2406623    0.2878274    0.3195822    0.3420629    0.3451909
:EIG00031:       0.3458571    0.3467880    0.3636629    0.4105135    0.4408759
:EIG00036:       0.4810424    0.4825459    0.5017507    0.5018173    0.5289029
:EIG00041:       0.5303352    0.5398095    0.5404069    0.5467906    0.5596489
:EIG00046:       0.5903075    0.5941245    0.6451092    0.6495998    0.6634249
 
:EIG00051:       0.7099157    0.7354420    0.7374795    0.7415869    0.7431260
:EIG00056:       0.7445433    0.7458037    0.7588291    0.7669598    0.7738608
:EIG00061:       0.7757304    0.7975702    0.8341572    0.8460996    0.8902016
:EIG00066:       0.8945737    0.9043544    0.9102870    0.9261385    0.9334089
:EIG00071:       0.9534422    1.3308396    1.3308738    1.3583238    1.3683944
:EIG00076:       1.3740815    1.8039686    1.8489307    1.8792910    1.8809643
:EIG00081:       1.9308341    1.9329961    1.9680516    1.9768239    1.9801818
:EIG00086:       1.9980627    2.0127410    2.0172120    2.0283694    2.0353790
:EIG00091:       2.0368113    2.0561440    2.0576649    2.0599314    2.0752490
:EIG00096:       2.0833907    2.1153438    2.1311328    2.1316615    2.1747008
 
:EIG00101:       2.1826409
       ********************************************************

:KPT   :      NUMBER OF K-POINTS:   310
:GAP (global)   :    0.0    Ry =     0.0   eV (metal)
:GAP (this spin):    0.0    Ry =     0.0   eV (metal)
         Bandranges (emin - emax) and occupancy:
:BAN00051:  51    0.646039    0.712100  1.00000000
:BAN00052:  52    0.676535    0.735442  1.00000000
:BAN00053:  53    0.690997    0.737479  1.00000000
:BAN00054:  54    0.704214    0.741587  1.00000000
:BAN00055:  55    0.717564    0.749615  1.00000000
:BAN00056:  56    0.727958    0.758930  1.00000000
:BAN00057:  57    0.736730    0.772976  1.00000000
:BAN00058:  58    0.750324    0.790417  0.84794698
:BAN00059:  59    0.763540    0.814166  0.14870623
:BAN00060:  60    0.773639    0.828194  0.00332757
:BAN00061:  61    0.775730    0.863090  0.00001921
:BAN00062:  62    0.789783    0.877931  0.00000000
:BAN00063:  63    0.829529    0.894558  0.00000000
:BAN00064:  64    0.846100    0.900114  0.00000000
:BAN00065:  65    0.871223    0.955301  0.00000000
:BAN00066:  66    0.886826    0.960273  0.00000000
        Energy to separate low and high energystates:    0.05353


:NOE  : NUMBER OF ELECTRONS          =  116.000

:FER  : F E R M I - ENERGY(TETRAH.M.)=   0.7791399024
:GMA  : POTENTIAL AND CHARGE CUT-OFF  12.00 Ry**.5

:POS001: ATOM   -1 X,Y,Z = 0.00000 0.00000 0.00000  MULT= 1  ZZ= 26.000  Fe1       

       LMMAX 16
       LM=   0 0  1 0  2 0  2 2  3 0  3 2  4 0  4 2  4 4  5 0  5 2  5 4  6 0  6 2  6 4  6 6

:CHA001: TOTAL VALENCE CHARGE INSIDE SPHERE   1 =   7.3676    (RMT=  2.4300 )
:PCS001: PARTIAL CHARGES SPHERE =  1 S,P,D,F,PX,PY,PZ,D-Z2,D-X2Y2,D-XY,D-XZ,D-YZ 
:QTL001: 0.2344 3.2422 3.8623 0.0211 1.0825 1.0847 1.0750 0.7398 0.7721 0.7907 0.7870 0.7727
        Q-s-low E-s-low   Q-p-low E-p-low   Q-d-low E-d-low   Q-f-low E-f-low
:EPL001:  0.0003 -2.8099    2.9946 -3.1245    0.0008 -2.8096    0.0004 -2.8108
        Q-s-hi  E-s-hi    Q-p-hi  E-p-hi    Q-d-hi  E-d-hi    Q-f-hi  E-f-hi 
:EPH001:  0.2341  0.3643    0.2476  0.4978    3.8615  0.6499    0.0208  0.5481

                      VXX         VYY         VZZ       UP TO R
:VZZ001:             0.29750    -2.28631     1.98881       2.430

:POS002: ATOM   -2 X,Y,Z = 0.00000 0.00000 0.50000  MULT= 1  ZZ= 26.000  Fe2       

       LMMAX 16
       LM=   0 0  1 0  2 0  2 2  3 0  3 2  4 0  4 2  4 4  5 0  5 2  5 4  6 0  6 2  6 4  6 6

:CHA002: TOTAL VALENCE CHARGE INSIDE SPHERE   2 =   4.3851    (RMT=  2.4300 )
:PCS002: PARTIAL CHARGES SPHERE =  2 S,P,D,F,PX,PY,PZ,D-Z2,D-X2Y2,D-XY,D-XZ,D-YZ 
:QTL002: 0.2112 3.2139 0.9335 0.0191 1.0731 1.0782 1.0626 0.1985 0.1349 0.2362 0.2418 0.1221
        Q-s-low E-s-low   Q-p-low E-p-low   Q-d-low E-d-low   Q-f-low E-f-low
:EPL002:  0.0003 -2.8093    2.9941 -2.9395    0.0008 -2.8090    0.0003 -2.8097
        Q-s-hi  E-s-hi    Q-p-hi  E-p-hi    Q-d-hi  E-d-hi    Q-f-hi  E-f-hi 
:EPH002:  0.2108  0.4022    0.2199  0.5228    0.9327  0.6373    0.0187  0.5463

                      VXX         VYY         VZZ       UP TO R
:VZZ002:            -1.85714     1.09794     0.75920       2.430

:POS003: ATOM   -3 X,Y,Z = 0.00000 0.25000 0.25000  MULT= 2  ZZ= 45.000  Rh1       

       LMMAX 28
       LM=   0 0  1 1 -1 1  2 0  2 2 -2 2  3 1 -3 1  3 3 -3 3  4 0  4 2 -4 2  4 4 -4 4  5 1 -5 1
         5 3 -5 3  5 5 -5 5  6 0  6 2 -6 2  6 4 -6 4  6 6 -6 6

:CHA003: TOTAL VALENCE CHARGE INSIDE SPHERE   3 =   7.4390    (RMT=  2.4300 )
:PCS003: PARTIAL CHARGES SPHERE =  3 S,P,D,F,PX,PY,PZ,D-Z2,D-X2Y2,D-XY,D-XZ,D-YZ 
:QTL003: 0.2084 3.1958 4.0002 0.0265 1.0618 1.0699 1.0640 0.8290 0.7707 0.8156 0.7962 0.7887
        Q-s-low E-s-low   Q-p-low E-p-low   Q-d-low E-d-low   Q-f-low E-f-low
:EPL003:  0.0003 -2.8140    2.9809 -2.7451    0.0009 -2.8128    0.0004 -2.8150
        Q-s-hi  E-s-hi    Q-p-hi  E-p-hi    Q-d-hi  E-d-hi    Q-f-hi  E-f-hi 
:EPH003:  0.2081  0.3574    0.2149  0.5215    3.9993  0.4935    0.0261  0.5572

                      QXX         QXY         QYY         QZZ       UP TO R
:VZZ003:             3.01936    -0.27384    -2.02512    -0.99423       2.430

:POS004: ATOM   -4 X,Y,Z = 0.50000 0.00000 0.25000  MULT= 1  ZZ= 26.000  Fe3       

       LMMAX 16
       LM=   0 0  1 0  2 0  2 2  3 0  3 2  4 0  4 2  4 4  5 0  5 2  5 4  6 0  6 2  6 4  6 6

:CHA004: TOTAL VALENCE CHARGE INSIDE SPHERE   4 =   7.3677    (RMT=  2.4300 )
:PCS004: PARTIAL CHARGES SPHERE =  4 S,P,D,F,PX,PY,PZ,D-Z2,D-X2Y2,D-XY,D-XZ,D-YZ 
:QTL004: 0.2344 3.2422 3.8624 0.0211 1.0825 1.0847 1.0750 0.7398 0.7721 0.7907 0.7870 0.7727
        Q-s-low E-s-low   Q-p-low E-p-low   Q-d-low E-d-low   Q-f-low E-f-low
:EPL004:  0.0003 -2.8099    2.9946 -3.1245    0.0008 -2.8096    0.0004 -2.8108
        Q-s-hi  E-s-hi    Q-p-hi  E-p-hi    Q-d-hi  E-d-hi    Q-f-hi  E-f-hi 
:EPH004:  0.2341  0.3643    0.2476  0.4978    3.8616  0.6499    0.0207  0.5481

                      VXX         VYY         VZZ       UP TO R
:VZZ004:             0.29742    -2.28616     1.98874       2.430

:POS005: ATOM   -5 X,Y,Z = 0.50000 0.00000 0.75000  MULT= 1  ZZ= 26.000  Fe4       

       LMMAX 16
       LM=   0 0  1 0  2 0  2 2  3 0  3 2  4 0  4 2  4 4  5 0  5 2  5 4  6 0  6 2  6 4  6 6

:CHA005: TOTAL VALENCE CHARGE INSIDE SPHERE   5 =   4.3851    (RMT=  2.4300 )
:PCS005: PARTIAL CHARGES SPHERE =  5 S,P,D,F,PX,PY,PZ,D-Z2,D-X2Y2,D-XY,D-XZ,D-YZ 
:QTL005: 0.2112 3.2139 0.9335 0.0191 1.0731 1.0782 1.0626 0.1985 0.1349 0.2362 0.2418 0.1221
        Q-s-low E-s-low   Q-p-low E-p-low   Q-d-low E-d-low   Q-f-low E-f-low
:EPL005:  0.0003 -2.8093    2.9941 -2.9395    0.0008 -2.8090    0.0003 -2.8097
        Q-s-hi  E-s-hi    Q-p-hi  E-p-hi    Q-d-hi  E-d-hi    Q-f-hi  E-f-hi 
:EPH005:  0.2109  0.4022    0.2199  0.5228    0.9328  0.6373    0.0187  0.5463

                      VXX         VYY         VZZ       UP TO R
:VZZ005:            -1.85752     1.09763     0.75989       2.430

:POS006: ATOM   -6 X,Y,Z = 0.50000 0.25000 0.50000  MULT= 2  ZZ= 45.000  Rh3       

       LMMAX 28
       LM=   0 0  1 1 -1 1  2 0  2 2 -2 2  3 1 -3 1  3 3 -3 3  4 0  4 2 -4 2  4 4 -4 4  5 1 -5 1
         5 3 -5 3  5 5 -5 5  6 0  6 2 -6 2  6 4 -6 4  6 6 -6 6

:CHA006: TOTAL VALENCE CHARGE INSIDE SPHERE   6 =   7.4390    (RMT=  2.4300 )
:PCS006: PARTIAL CHARGES SPHERE =  6 S,P,D,F,PX,PY,PZ,D-Z2,D-X2Y2,D-XY,D-XZ,D-YZ 
:QTL006: 0.2084 3.1958 4.0002 0.0265 1.0618 1.0699 1.0640 0.8290 0.7707 0.8156 0.7962 0.7887
        Q-s-low E-s-low   Q-p-low E-p-low   Q-d-low E-d-low   Q-f-low E-f-low
:EPL006:  0.0003 -2.8140    2.9809 -2.7451    0.0009 -2.8128    0.0004 -2.8150
        Q-s-hi  E-s-hi    Q-p-hi  E-p-hi    Q-d-hi  E-d-hi    Q-f-hi  E-f-hi 
:EPH006:  0.2081  0.3574    0.2149  0.5215    3.9993  0.4935    0.0261  0.5572

                      QXX         QXY         QYY         QZZ       UP TO R
:VZZ006:             3.01958    -0.27378    -2.02552    -0.99405       2.430

:CHA  : TOTAL VALENCE CHARGE INSIDE UNIT CELL =      58.000000

:SUM  : SUM OF EIGENVALUES =         -51.390715995

:GAP (global)   :    0.0    Ry =     0.0   eV (metal)
:GAP (this spin):    0.0    Ry =     0.0   eV (metal)
         Bandranges (emin - emax) and occupancy:
:BAN00051:  51    0.646039    0.712100  1.00000000
:BAN00052:  52    0.676535    0.735442  1.00000000
:BAN00053:  53    0.690997    0.737479  1.00000000
:BAN00054:  54    0.704214    0.741587  1.00000000
:BAN00055:  55    0.717564    0.749615  1.00000000
:BAN00056:  56    0.727958    0.758930  1.00000000
:BAN00057:  57    0.736730    0.772976  1.00000000
:BAN00058:  58    0.750324    0.790417  0.84794698
:BAN00059:  59    0.763540    0.814166  0.14870624
:BAN00060:  60    0.773639    0.828194  0.00332757
:BAN00061:  61    0.775730    0.863090  0.00001921
:BAN00062:  62    0.789783    0.877931  0.00000000
:BAN00063:  63    0.829529    0.894558  0.00000000
:BAN00064:  64    0.846100    0.900114  0.00000000
:BAN00065:  65    0.871223    0.955301  0.00000000
:BAN00066:  66    0.886826    0.960273  0.00000000
        Energy to separate low and high energystates:    0.05353


:NOE  : NUMBER OF ELECTRONS          =  116.000

:FER  : F E R M I - ENERGY(TETRAH.M.)=   0.7791399024
:GMA  : POTENTIAL AND CHARGE CUT-OFF  12.00 Ry**.5

:POS001: ATOM   -1 X,Y,Z = 0.00000 0.00000 0.00000  MULT= 1  ZZ= 26.000  Fe1       

       LMMAX 16
       LM=   0 0  1 0  2 0  2 2  3 0  3 2  4 0  4 2  4 4  5 0  5 2  5 4  6 0  6 2  6 4  6 6

:CHA001: TOTAL VALENCE CHARGE INSIDE SPHERE   1 =   4.3851    (RMT=  2.4300 )
:PCS001: PARTIAL CHARGES SPHERE =  1 S,P,D,F,PX,PY,PZ,D-Z2,D-X2Y2,D-XY,D-XZ,D-YZ 
:QTL001: 0.2112 3.2139 0.9335 0.0191 1.0731 1.0782 1.0626 0.1985 0.1349 0.2362 0.2418 0.1221
        Q-s-low E-s-low   Q-p-low E-p-low   Q-d-low E-d-low   Q-f-low E-f-low
:EPL001:  0.0003 -2.8093    2.9941 -2.9395    0.0008 -2.8090    0.0003 -2.8097
        Q-s-hi  E-s-hi    Q-p-hi  E-p-hi    Q-d-hi  E-d-hi    Q-f-hi  E-f-hi 
:EPH001:  0.2108  0.4022    0.2199  0.5228    0.9327  0.6373    0.0187  0.5463

                      VXX         VYY         VZZ       UP TO R
:VZZ001:            -1.85714     1.09794     0.75920       2.430

:POS002: ATOM   -2 X,Y,Z = 0.00000 0.00000 0.50000  MULT= 1  ZZ= 26.000  Fe2       

       LMMAX 16
       LM=   0 0  1 0  2 0  2 2  3 0  3 2  4 0  4 2  4 4  5 0  5 2  5 4  6 0  6 2  6 4  6 6

:CHA002: TOTAL VALENCE CHARGE INSIDE SPHERE   2 =   7.3676    (RMT=  2.4300 )
:PCS002: PARTIAL CHARGES SPHERE =  2 S,P,D,F,PX,PY,PZ,D-Z2,D-X2Y2,D-XY,D-XZ,D-YZ 
:QTL002: 0.2344 3.2422 3.8623 0.0211 1.0825 1.0847 1.0750 0.7398 0.7721 0.7907 0.7870 0.7727
        Q-s-low E-s-low   Q-p-low E-p-low   Q-d-low E-d-low   Q-f-low E-f-low
:EPL002:  0.0003 -2.8099    2.9946 -3.1245    0.0008 -2.8096    0.0004 -2.8108
        Q-s-hi  E-s-hi    Q-p-hi  E-p-hi    Q-d-hi  E-d-hi    Q-f-hi  E-f-hi 
:EPH002:  0.2341  0.3643    0.2476  0.4978    3.8615  0.6499    0.0208  0.5481

                      VXX         VYY         VZZ       UP TO R
:VZZ002:             0.29750    -2.28631     1.98881       2.430

:POS003: ATOM   -3 X,Y,Z = 0.00000 0.25000 0.25000  MULT= 2  ZZ= 45.000  Rh1       

       LMMAX 28
       LM=   0 0  1 1 -1 1  2 0  2 2 -2 2  3 1 -3 1  3 3 -3 3  4 0  4 2 -4 2  4 4 -4 4  5 1 -5 1
         5 3 -5 3  5 5 -5 5  6 0  6 2 -6 2  6 4 -6 4  6 6 -6 6

:CHA003: TOTAL VALENCE CHARGE INSIDE SPHERE   3 =   7.4390    (RMT=  2.4300 )
:PCS003: PARTIAL CHARGES SPHERE =  3 S,P,D,F,PX,PY,PZ,D-Z2,D-X2Y2,D-XY,D-XZ,D-YZ 
:QTL003: 0.2084 3.1958 4.0002 0.0265 1.0618 1.0699 1.0640 0.8290 0.7707 0.8156 0.7962 0.7887
        Q-s-low E-s-low   Q-p-low E-p-low   Q-d-low E-d-low   Q-f-low E-f-low
:EPL003:  0.0003 -2.8140    2.9809 -2.7451    0.0009 -2.8128    0.0004 -2.8150
        Q-s-hi  E-s-hi    Q-p-hi  E-p-hi    Q-d-hi  E-d-hi    Q-f-hi  E-f-hi 
:EPH003:  0.2081  0.3574    0.2149  0.5215    3.9993  0.4935    0.0261  0.5572

                      QXX         QXY         QYY         QZZ       UP TO R
:VZZ003:             3.01936     0.27384    -2.02512    -0.99423       2.430

:POS004: ATOM   -4 X,Y,Z = 0.50000 0.00000 0.25000  MULT= 1  ZZ= 26.000  Fe3       

       LMMAX 16
       LM=   0 0  1 0  2 0  2 2  3 0  3 2  4 0  4 2  4 4  5 0  5 2  5 4  6 0  6 2  6 4  6 6

:CHA004: TOTAL VALENCE CHARGE INSIDE SPHERE   4 =   4.3851    (RMT=  2.4300 )
:PCS004: PARTIAL CHARGES SPHERE =  4 S,P,D,F,PX,PY,PZ,D-Z2,D-X2Y2,D-XY,D-XZ,D-YZ 
:QTL004: 0.2112 3.2139 0.9335 0.0191 1.0731 1.0782 1.0626 0.1985 0.1349 0.2362 0.2418 0.1221
        Q-s-low E-s-low   Q-p-low E-p-low   Q-d-low E-d-low   Q-f-low E-f-low
:EPL004:  0.0003 -2.8093    2.9941 -2.9395    0.0008 -2.8090    0.0003 -2.8097
        Q-s-hi  E-s-hi    Q-p-hi  E-p-hi    Q-d-hi  E-d-hi    Q-f-hi  E-f-hi 
:EPH004:  0.2109  0.4022    0.2199  0.5228    0.9328  0.6373    0.0187  0.5463

                      VXX         VYY         VZZ       UP TO R
:VZZ004:            -1.85752     1.09763     0.75989       2.430

:POS005: ATOM   -5 X,Y,Z = 0.50000 0.00000 0.75000  MULT= 1  ZZ= 26.000  Fe4       

       LMMAX 16
       LM=   0 0  1 0  2 0  2 2  3 0  3 2  4 0  4 2  4 4  5 0  5 2  5 4  6 0  6 2  6 4  6 6

:CHA005: TOTAL VALENCE CHARGE INSIDE SPHERE   5 =   7.3677    (RMT=  2.4300 )
:PCS005: PARTIAL CHARGES SPHERE =  5 S,P,D,F,PX,PY,PZ,D-Z2,D-X2Y2,D-XY,D-XZ,D-YZ 
:QTL005: 0.2344 3.2422 3.8624 0.0211 1.0825 1.0847 1.0750 0.7398 0.7721 0.7907 0.7870 0.7727
        Q-s-low E-s-low   Q-p-low E-p-low   Q-d-low E-d-low   Q-f-low E-f-low
[...]

                      QXX         QXY         QYY         QZZ       UP TO R
:VZZ003:            -0.61024    -0.13533    -1.60245     2.21269       2.430

:POS004: ATOM   -4 X,Y,Z = 0.50000 0.00000 0.25000  MULT= 1  ZZ= 26.000  Fe3       

       LMMAX 16
       LM=   0 0  1 0  2 0  2 2  3 0  3 2  4 0  4 2  4 4  5 0  5 2  5 4  6 0  6 2  6 4  6 6

:CHA004: TOTAL VALENCE CHARGE INSIDE SPHERE   4 =   5.1594    (RMT=  2.4300 )
:PCS004: PARTIAL CHARGES SPHERE =  4 S,P,D,F,PX,PY,PZ,D-Z2,D-X2Y2,D-XY,D-XZ,D-YZ 
:QTL004: 0.2097 3.2135 1.7098 0.0191 1.0718 1.0761 1.0655 0.3788 0.2740 0.3897 0.4492 0.2181
        Q-s-low E-s-low   Q-p-low E-p-low   Q-d-low E-d-low   Q-f-low E-f-low
:EPL004:  0.0003 -2.8367    2.9948 -3.1480    0.0008 -2.8411    0.0003 -2.8447
        Q-s-hi  E-s-hi    Q-p-hi  E-p-hi    Q-d-hi  E-d-hi    Q-f-hi  E-f-hi 
:EPH004:  0.2094  0.3089    0.2187  0.4407    1.7090  0.5446    0.0188  0.4948

                      VXX         VYY         VZZ       UP TO R
:VZZ004:            -1.55920     2.27183    -0.71263       2.430

:POS005: ATOM   -5 X,Y,Z = 0.50000 0.00000 0.75000  MULT= 1  ZZ= 26.000  Fe4       

       LMMAX 16
       LM=   0 0  1 0  2 0  2 2  3 0  3 2  4 0  4 2  4 4  5 0  5 2  5 4  6 0  6 2  6 4  6 6

:CHA005: TOTAL VALENCE CHARGE INSIDE SPHERE   5 =   7.9167    (RMT=  2.4300 )
:PCS005: PARTIAL CHARGES SPHERE =  5 S,P,D,F,PX,PY,PZ,D-Z2,D-X2Y2,D-XY,D-XZ,D-YZ 
:QTL005: 0.2360 3.2353 4.4180 0.0203 1.0783 1.0825 1.0744 0.8609 0.9108 0.8656 0.8727 0.9080
        Q-s-low E-s-low   Q-p-low E-p-low   Q-d-low E-d-low   Q-f-low E-f-low
:EPL005:  0.0003 -2.8367    2.9954 -3.3459    0.0008 -2.8413    0.0003 -2.8447
        Q-s-hi  E-s-hi    Q-p-hi  E-p-hi    Q-d-hi  E-d-hi    Q-f-hi  E-f-hi 
:EPH005:  0.2357  0.2818    0.2399  0.4192    4.4172  0.4801    0.0199  0.4899

                      VXX         VYY         VZZ       UP TO R
:VZZ005:            -0.24428    -1.14262     1.38690       2.430

:POS006: ATOM   -6 X,Y,Z = 0.50000 0.25000 0.50000  MULT= 2  ZZ= 45.000  Rh3       

       LMMAX 28
       LM=   0 0  1 1 -1 1  2 0  2 2 -2 2  3 1 -3 1  3 3 -3 3  4 0  4 2 -4 2  4 4 -4 4  5 1 -5 1
         5 3 -5 3  5 5 -5 5  6 0  6 2 -6 2  6 4 -6 4  6 6 -6 6

:CHA006: TOTAL VALENCE CHARGE INSIDE SPHERE   6 =   6.8352    (RMT=  2.4300 )
:PCS006: PARTIAL CHARGES SPHERE =  6 S,P,D,F,PX,PY,PZ,D-Z2,D-X2Y2,D-XY,D-XZ,D-YZ 
:QTL006: 0.1910 3.1581 3.4548 0.0238 1.0478 1.0578 1.0526 0.6712 0.6822 0.7265 0.7184 0.6564
        Q-s-low E-s-low   Q-p-low E-p-low   Q-d-low E-d-low   Q-f-low E-f-low
:EPL006:  0.0003 -2.8412    2.9806 -2.7394    0.0008 -2.8437    0.0004 -2.8497
        Q-s-hi  E-s-hi    Q-p-hi  E-p-hi    Q-d-hi  E-d-hi    Q-f-hi  E-f-hi 
:EPH006:  0.1907  0.3094    0.1776  0.4436    3.4540  0.4653    0.0234  0.4918

                      QXX         QXY         QYY         QZZ       UP TO R
:VZZ006:            -0.60990    -0.13536    -1.60288     2.21279       2.430

:CHA  : TOTAL VALENCE CHARGE INSIDE UNIT CELL =      58.000000

:SUM  : SUM OF EIGENVALUES =         -56.238882981


        1.ATOM      Fe1                   5 CORE STATES
       CORE-FORCE in mRy/a.u. = |F|      Fx             Fy             Fz
:FCO001:   1.ATOM     13.900532165771      0.000000000000      0.000000000000     13.900532165771

:1S 001: 1S                -513.183731007 Ry
:2S 001: 2S                 -59.134734192 Ry
:2PP001: 2P*                -50.828298116 Ry
:2P 001: 2P                 -49.911610522 Ry
:3S 001: 3S                  -5.841529784 Ry

        2.ATOM      Fe2                   5 CORE STATES
       CORE-FORCE in mRy/a.u. = |F|      Fx             Fy             Fz
:FCO002:   2.ATOM     10.886582660369      0.000000000000      0.000000000000     10.886582660369

:1S 002: 1S                -513.183291858 Ry
:2S 002: 2S                 -59.047222362 Ry
:2PP002: 2P*                -50.763129008 Ry
:2P 002: 2P                 -49.844538230 Ry
:3S 002: 3S                  -5.639618101 Ry

        3.ATOM      Rh1                  10 CORE STATES
       CORE-FORCE in mRy/a.u. = |F|      Fx             Fy             Fz
:FCO003:   3.ATOM     70.216785884809     -4.389298803330     70.079462583614      0.000000000000

:1S 003: 1S               -1691.431493021 Ry
:2S 003: 2S                -244.334185465 Ry
:2PP003: 2P*               -226.143188799 Ry
:2P 003: 2P                -215.514173053 Ry
:3S 003: 3S                 -42.867659548 Ry
:3PP003: 3P*                -35.749637380 Ry
:3P 003: 3P                 -33.921079339 Ry
:3DD003: 3D*                -21.324013070 Ry
:3D 003: 3D                 -20.963390042 Ry
:4S 003: 4S                  -5.096612412 Ry

        4.ATOM      Fe3                   5 CORE STATES
       CORE-FORCE in mRy/a.u. = |F|      Fx             Fy             Fz
:FCO004:   4.ATOM     13.898366202228      0.000000000000      0.000000000000    -13.898366202228

:1S 004: 1S                -513.183728048 Ry
:2S 004: 2S                 -59.134732046 Ry
:2PP004: 2P*                -50.828296041 Ry
:2P 004: 2P                 -49.911608445 Ry
:3S 004: 3S                  -5.841527428 Ry

        5.ATOM      Fe4                   5 CORE STATES
       CORE-FORCE in mRy/a.u. = |F|      Fx             Fy             Fz
:FCO005:   5.ATOM     10.886415566197      0.000000000000      0.000000000000    -10.886415566197

:1S 005: 1S                -513.183288907 Ry
:2S 005: 2S                 -59.047220209 Ry
:2PP005: 2P*                -50.763126942 Ry
:2P 005: 2P                 -49.844536162 Ry
:3S 005: 3S                  -5.639618570 Ry

        6.ATOM      Rh3                  10 CORE STATES
       CORE-FORCE in mRy/a.u. = |F|      Fx             Fy             Fz
:FCO006:   6.ATOM     70.214705226610      4.392695879129    -70.077164989554      0.000000000000

:1S 006: 1S               -1691.431483811 Ry
:2S 006: 2S                -244.334182467 Ry
:2PP006: 2P*               -226.143186161 Ry
:2P 006: 2P                -215.514170466 Ry
:3S 006: 3S                 -42.867657881 Ry
:3PP006: 3P*                -35.749635753 Ry
:3P 006: 3P                 -33.921077726 Ry
:3DD006: 3D*                -21.324011393 Ry
:3D 006: 3D                 -20.963388368 Ry
:4S 006: 4S                  -5.096611044 Ry

        1.ATOM      Fe1                   5 CORE STATES
       CORE-FORCE in mRy/a.u. = |F|      Fx             Fy             Fz
:FCO001:   1.ATOM     10.886584047617      0.000000000000      0.000000000000     10.886584047617

:1S 001: 1S                -513.183291884 Ry
:2S 001: 2S                 -59.047222377 Ry
:2PP001: 2P*                -50.763129024 Ry
:2P 001: 2P                 -49.844538246 Ry
:3S 001: 3S                  -5.639618110 Ry

        2.ATOM      Fe2                   5 CORE STATES
       CORE-FORCE in mRy/a.u. = |F|      Fx             Fy             Fz
:FCO002:   2.ATOM     13.900530767286      0.000000000000      0.000000000000     13.900530767286

:1S 002: 1S                -513.183730981 Ry
:2S 002: 2S                 -59.134734178 Ry
:2PP002: 2P*                -50.828298101 Ry
:2P 002: 2P                 -49.911610507 Ry
:3S 002: 3S                  -5.841529778 Ry

        3.ATOM      Rh1                  10 CORE STATES
       CORE-FORCE in mRy/a.u. = |F|      Fx             Fy             Fz
:FCO003:   3.ATOM     70.216785880834      4.389298747170     70.079462583149      0.000000000000

:1S 003: 1S               -1691.431493021 Ry
:2S 003: 2S                -244.334185465 Ry
:2PP003: 2P*               -226.143188799 Ry
:2P 003: 2P                -215.514173053 Ry
:3S 003: 3S                 -42.867659548 Ry
:3PP003: 3P*                -35.749637380 Ry
:3P 003: 3P                 -33.921079339 Ry
:3DD003: 3D*                -21.324013070 Ry
:3D 003: 3D                 -20.963390042 Ry
:4S 003: 4S                  -5.096612412 Ry

        4.ATOM      Fe3                   5 CORE STATES
       CORE-FORCE in mRy/a.u. = |F|      Fx             Fy             Fz
:FCO004:   4.ATOM     10.886408183422      0.000000000000      0.000000000000    -10.886408183422

:1S 004: 1S                -513.183288910 Ry
:2S 004: 2S                 -59.047220211 Ry
:2PP004: 2P*                -50.763126944 Ry
:2P 004: 2P                 -49.844536164 Ry
:3S 004: 3S                  -5.639618571 Ry

        5.ATOM      Fe4                   5 CORE STATES
       CORE-FORCE in mRy/a.u. = |F|      Fx             Fy             Fz
:FCO005:   5.ATOM     13.898373619678      0.000000000000      0.000000000000    -13.898373619678

:1S 005: 1S                -513.183728044 Ry
:2S 005: 2S                 -59.134732044 Ry
:2PP005: 2P*                -50.828296039 Ry
:2P 005: 2P                 -49.911608442 Ry
:3S 005: 3S                  -5.841527427 Ry

        6.ATOM      Rh3                  10 CORE STATES
       CORE-FORCE in mRy/a.u. = |F|      Fx             Fy             Fz
:FCO006:   6.ATOM     70.214706102018     -4.392709852045    -70.077164990805      0.000000000000

:1S 006: 1S               -1691.431483811 Ry
:2S 006: 2S                -244.334182467 Ry
:2PP006: 2P*               -226.143186161 Ry
:2P 006: 2P                -215.514170466 Ry
:3S 006: 3S                 -42.867657881 Ry
:3PP006: 3P*                -35.749635753 Ry
:3P 006: 3P                 -33.921077726 Ry
:3DD006: 3D*                -21.324011393 Ry
:3D 006: 3D                 -20.963388368 Ry
:4S 006: 4S                  -5.096611044 Ry
:CINT001 Core Integral Atom   1 Up    5.999649 Dn   5.999620 Total  11.999269
:CINT002 Core Integral Atom   2 Up    5.999620 Dn   5.999649 Total  11.999269
:CINT003 Core Integral Atom   3 Up   14.998698 Dn  14.998698 Total  29.997396
:CINT004 Core Integral Atom   4 Up    5.999649 Dn   5.999620 Total  11.999269
:CINT005 Core Integral Atom   5 Up    5.999620 Dn   5.999649 Total  11.999269
:CINT006 Core Integral Atom   6 Up   14.998698 Dn  14.998698 Total  29.997397

       DENSITY AT NUCLEUS
        JATOM        VALENCE       SEMI-CORE          CORE           TOTAL
:RTO001:   1        6.530589        0.000000    15303.264561    15309.795150
:RTO002:   2        6.530589        0.000000    15303.264561    15309.795150
:RTO003:   3       20.705595        0.000000   129454.282018   129474.987613
:RTO004:   4        6.934603        0.000000    16258.567320    16265.501922
:RTO005:   5        6.934603        0.000000    16258.567320    16265.501922
:RTO006:   6       24.833960        0.000000   155312.920645   155337.754605

       HYPERFINE FIELDS FOR THOMSON RADIUS
:HFF001:          216.444           0.000        -299.718         -83.274 (KGAUSS)
:HFF002:         -216.444           0.000         299.718          83.274 (KGAUSS)
:HFF003:            0.000           0.000           0.000           0.000 (KGAUSS)
:HFF004:          216.427           0.000        -299.615         -83.188 (KGAUSS)
:HFF005:         -216.427           0.000         299.615          83.188 (KGAUSS)
:HFF006:            0.000           0.000           0.000           0.000 (KGAUSS)
     
       CHARGES OF NEW CHARGE DENSITY
:NTO   : INTERSTITIAL     UP =     4.507070 DN =     4.507070 TOT =     9.014139
:NPC   : PW Pseudocharge  UP =    10.811643 DN =    10.811643 TOT =    21.623286
:NTO001: CHARGE SPHERE  1 UP =    13.916375 DN =    11.158966 TOT =    25.075341
:NTO002: CHARGE SPHERE  2 UP =    11.158966 DN =    13.916375 TOT =    25.075341
:NTO003: CHARGE SPHERE  3 UP =    21.833877 DN =    21.833877 TOT =    43.667755
:NTO004: CHARGE SPHERE  4 UP =    13.916369 DN =    11.158974 TOT =    25.075343
:NTO005: CHARGE SPHERE  5 UP =    11.158974 DN =    13.916369 TOT =    25.075343
:NTO006: CHARGE SPHERE  6 UP =    21.833879 DN =    21.833879 TOT =    43.667758

:NEC01: NUCLEAR AND ELECTRONIC CHARGE    284.00000   283.98653
     
       CHARGES OF OLD CHARGE DENSITY
:OTO   : INTERSTITIAL     UP =     4.280493 DN =     4.280493 TOT =     8.560987
:OPC   : PW Pseudocharge  UP =    11.380080 DN =    11.380080 TOT =    22.760160
:OTO001: CHARGE SPHERE  1 UP =    13.908617 DN =    11.248115 TOT =    25.156732
:OTO002: CHARGE SPHERE  2 UP =    11.248115 DN =    13.908617 TOT =    25.156732
:OTO003: CHARGE SPHERE  3 UP =    21.851512 DN =    21.851512 TOT =    43.703024
:OTO004: CHARGE SPHERE  4 UP =    13.908613 DN =    11.248119 TOT =    25.156731
:OTO005: CHARGE SPHERE  5 UP =    11.248119 DN =    13.908613 TOT =    25.156731
:OTO006: CHARGE SPHERE  6 UP =    21.851510 DN =    21.851510 TOT =    43.703020

:NEC02: NUCLEAR AND ELECTRONIC CHARGE    284.00000   284.00000
     
       CONVERGENCE TEST
:DTO001: DIFFERENCE SPHERE  1 UP =  0.1727342 DN =  0.1879562 TOT =  0.3606904
:DTO002: DIFFERENCE SPHERE  2 UP =  0.1879563 DN =  0.1727343 TOT =  0.3606905
:DTO003: DIFFERENCE SPHERE  3 UP =  0.0612851 DN =  0.0612851 TOT =  0.1225702
:DTO004: DIFFERENCE SPHERE  4 UP =  0.1727344 DN =  0.1879618 TOT =  0.3606962
:DTO005: DIFFERENCE SPHERE  5 UP =  0.1879618 DN =  0.1727344 TOT =  0.3606963
:DTO006: DIFFERENCE SPHERE  6 UP =  0.0612892 DN =  0.0612892 TOT =  0.1225784

:DIS  :  CHARGE DISTANCE       ( 0.1879618 for atom    5 spin 1)      0.4832677
 PW Mixed is          702
 
******************************************************
* MULTISECANT MIXING VER9 RELEASE 10.4.0              *
* Slow Mode, cautious                                *
* Fixed density scale                                *
* Regularization       1.000E-04                     *
* Step Trust Radius    0.75000                       *
* Trust Upper Limit    2.000E+00                     *
* Max Number of Memory Steps   12                    *
******************************************************
 
:PWTMP   2.3530E+02  9.1833E+02  7.1614E+02
:PLANE:  PW TOTAL      3.5043 DISTAN   2.92E-01  8.32E+00 %
:CHARG:  CLM/ATOM    149.9490 DISTAN   1.12E-01  7.45E-02 %
 :WARNING:  ERROR in reading files, restarted
 
Step History
        DMIX         DMIXT        Red     Pred      Trust     Lambda    MagRel    MagAbs     Beta
  1   2.5000E-02   3.5000E-02 -1.00E+00  1.00E+00 -1.00E+01  1.00E+00  3.50E-02  3.50E-02  1.00E+00
:INFO :  Note, Pratt in use
:TRUST:  Step 3.75E-02  Charge 7.50E-02 (e) CTO  2.50E-01 (e) PW  3.50E-01 (e)
:DIRM :  MEMORY  0/12 SCALE   1.000
:MIX  :   PRATT  REGULARIZATION:  1.00E-04 GREED: 0.02500                  
     
       CHARGES OF MIXED CHARGE DENSITY
:CTO   : INTERSTITIAL     UP =     4.286326 DN =     4.286326 TOT =     8.572652
:CPC   : PW Pseudocharge  UP =    11.366273 DN =    11.366273 TOT =    22.732545
:CTO001: CHARGE SPHERE  1 UP =    13.908811 DN =    11.245887 TOT =    25.154698
:CTO002: CHARGE SPHERE  2 UP =    11.245887 DN =    13.908811 TOT =    25.154698
:CTO003: CHARGE SPHERE  3 UP =    21.851071 DN =    21.851071 TOT =    43.702142
:CTO004: CHARGE SPHERE  4 UP =    13.908806 DN =    11.245890 TOT =    25.154696
:CTO005: CHARGE SPHERE  5 UP =    11.245890 DN =    13.908806 TOT =    25.154696
:CTO006: CHARGE SPHERE  6 UP =    21.851069 DN =    21.851069 TOT =    43.702138

       SPIN MAGNETIC MOMENTS OF MIXED CHARGE DENSITY
:MMINT:  MAGNETIC MOMENT IN INTERSTITIAL  =   -0.00000
:MMI001: MAGNETIC MOMENT IN SPHERE   1    =    2.66292
:MMI002: MAGNETIC MOMENT IN SPHERE   2    =   -2.66292
:MMI003: MAGNETIC MOMENT IN SPHERE   3    =   -0.00000
:MMI004: MAGNETIC MOMENT IN SPHERE   4    =    2.66292
:MMI005: MAGNETIC MOMENT IN SPHERE   5    =   -2.66292
:MMI006: MAGNETIC MOMENT IN SPHERE   6    =   -0.00000
:MMTOT:  SPIN MAGNETIC MOMENT IN CELL     =   -0.00000

:NEC03: NUCLEAR AND ELECTRONIC CHARGE    284.00000   284.00000

PW CHANGE     H    K    L             Current                    Change               Residue
:PUP001:      0    0    0  2.18568768E-02 0.00000000E+00 -1.114E-05  0.000E+00 -4.454E-04  0.000E+00
:PUP002:      0   -1    1  1.20746387E-03-1.20736313E-03 -1.682E-05  1.682E-05 -6.728E-04  6.729E-04
:PUP003:      0   -1   -1  1.20746387E-03 1.20736313E-03 -1.682E-05 -1.682E-05 -6.728E-04 -6.729E-04
:PUP004:      0   -2    0 -5.56214898E-03 0.00000000E+00  2.394E-05  0.000E+00  9.575E-04  0.000E+00
:PUP005:      0    0    2  3.90171806E-08-5.36908573E-06 -9.877E-10 -3.968E-07 -3.951E-08 -1.587E-05
:PUP006:      0    0   -2  3.90171806E-08 5.36908573E-06 -9.877E-10  3.968E-07 -3.951E-08  1.587E-05
:PUP007:     -1    0    0 -1.78970458E-07 0.00000000E+00  2.735E-09  0.000E+00  1.094E-07  0.000E+00
:PUP008:      0   -2    2 -1.57484404E-07-2.16702897E-05  3.368E-09 -1.792E-06  1.347E-07 -7.169E-05
:PUP009:      0   -2   -2 -1.57484404E-07 2.16702897E-05  3.368E-09  1.792E-06  1.347E-07  7.169E-05
:PUP010:     -1   -1    1  5.13944446E-04 5.13890085E-04  3.478E-06  3.478E-06  1.391E-04  1.391E-04
:PUP011:     -1   -1   -1  5.13944446E-04-5.13890085E-04  3.478E-06 -3.478E-06  1.391E-04 -1.391E-04
:PUP012:      0   -3    1  2.51861999E-04-2.51860910E-04  1.332E-06 -1.333E-06  5.328E-05 -5.332E-05
  
:PDN001:      0    0    0  2.18568768E-02 0.00000000E+00 -1.114E-05  0.000E+00 -4.454E-04  0.000E+00
:PDN002:      0   -1    1 -1.20746385E-03 1.20736313E-03  1.682E-05 -1.682E-05  6.728E-04 -6.729E-04
:PDN003:      0   -1   -1 -1.20746385E-03-1.20736313E-03  1.682E-05  1.682E-05  6.728E-04  6.729E-04
:PDN004:      0   -2    0 -5.56214895E-03 0.00000000E+00  2.394E-05  0.000E+00  9.575E-04  0.000E+00
:PDN005:      0    0    2  3.90256479E-08-5.36908618E-06 -9.875E-10 -3.968E-07 -3.950E-08 -1.587E-05
:PDN006:      0    0   -2  3.90256479E-08 5.36908618E-06 -9.875E-10  3.968E-07 -3.950E-08  1.587E-05
:PDN007:     -1    0    0 -1.78962542E-07 0.00000000E+00  2.736E-09  0.000E+00  1.094E-07  0.000E+00
:PDN008:      0   -2    2 -1.57474982E-07-2.16702910E-05  3.368E-09 -1.792E-06  1.347E-07 -7.169E-05
:PDN009:      0   -2   -2 -1.57474982E-07 2.16702910E-05  3.368E-09  1.792E-06  1.347E-07  7.169E-05
:PDN010:     -1   -1    1 -5.13944429E-04-5.13890084E-04 -3.478E-06 -3.478E-06 -1.391E-04 -1.391E-04
:PDN011:     -1   -1   -1 -5.13944429E-04 5.13890084E-04 -3.478E-06  3.478E-06 -1.391E-04  1.391E-04
:PDN012:      0   -3    1 -2.51861988E-04 2.51860907E-04 -1.332E-06  1.333E-06 -5.328E-05  5.332E-05

:ENE  : *WARNING** TOTAL ENERGY IN Ry =       -48464.31653607

       TOTAL FORCE IN mRy/a.u. = |F|     Fx             Fy             Fz     with/without FOR in case.in2
:FOR001:   1.ATOM         10.326          0.000          0.000         10.326 partial forces
:FOR002:   2.ATOM         10.326          0.000          0.000         10.326 partial forces
:FOR003:   3.ATOM          7.544          0.000         -7.544          0.000 partial forces
:FOR004:   4.ATOM         10.326          0.000          0.000        -10.326 partial forces
:FOR005:   5.ATOM         10.326          0.000          0.000        -10.326 partial forces
:FOR006:   6.ATOM          7.544          0.000          7.544          0.000 partial forces
       TOTAL FORCE WITH RESPECT TO GLOBAL CARTESIAN COORDINATES:
:FCA001:   1.ATOM                         0.000          0.000         10.326 partial forces
:FCA002:   2.ATOM                         0.000          0.000         10.326 partial forces
:FCA003:   3.ATOM                         0.000          0.000         -7.544 partial forces
:FCA004:   4.ATOM                         0.000          0.000        -10.326 partial forces
:FCA005:   5.ATOM                         0.000          0.000        -10.326 partial forces
:FCA006:   6.ATOM                         0.000          0.000          7.544 partial forces
       TOTAL FORCE WITH RESPECT TO THE GLOBAL COORDINATE SYSTEM:
:FGL001:   1.ATOM                 0.000000000     0.000000000    10.326037033 partial forces
:FGL002:   2.ATOM                 0.000000000     0.000000000    10.326035106 partial forces
:FGL003:   3.ATOM                 0.000000000     0.000000419    -7.544001437 partial forces
:FGL004:   4.ATOM                 0.000000000     0.000000000   -10.325819700 partial forces
:FGL005:   5.ATOM                 0.000000000     0.000000000   -10.325814168 partial forces
:FGL006:   6.ATOM                 0.000000000     0.000001027     7.543759550 partial forces
