
:LABEL1: Calculations in /home/cmueller/wien/FZU/src/FeRh/supercell/largeFFM2
:LABEL2: on cv036 at Sat Mar 15 07:44:39 PM CET 2025
:LABEL3: using WIEN2k_19.1 (Release 25/6/2019) in /home/cmueller/WIENROOT
:LABEL4: using the command: runsp_lapw

:LABEL1: Calculations in /home/cmueller/wien/FZU/src/FeRh/supercell/largeFFM2
:LABEL2: on cv036 at Sun Mar 16 10:19:48 AM CET 2025
:LABEL3: using WIEN2k_19.1 (Release 25/6/2019) in /home/cmueller/WIENROOT
:LABEL4: using the command: runsp_lapw
 Flat Integration
 New Mode for Coulomb Integral
 Consistent 3/8+Simpson combinations
 Extension of core to zero
 LDM version in phi
 Fifth-order quadrature in outwin


            ---------
:ITE001:  1. ITERATION
            ---------

:NATO :    6 INDEPENDENT AND    8 TOTAL ATOMS IN UNITCELL
       SUBSTANCE: FeRh                                                        

       LATTICE                      = CYZ 
:POT  : POTENTIAL OPTION EX_PBE EC_PBE VX_PBE VC_PBE
:LAT  : LATTICE CONSTANTS=  5.63611 15.94133 15.94133    1.571    1.571    1.571
:VOL  : UNIT CELL VOLUME =     716.14069
       MODE OF CALCULATION IS       = RELA
       SPINPOLARIZED CALCULATION
:IFFT  : FFT-parameters:   48  128  128 Factor: 2.00


   CONVERGENCE PARAMETER FOR PSEUDOCHARGE: NCON=  9
   MAXIMAL VALUE OF RMT(JATOM)*ABSK(NKK) : RK  =29.11372


:VKCOUL :  VK-COUL convergence: 0.147E-07
       ATOMNUMBER=  1 Fe1        VCOUL-ZERO =  0.66157E+00
:EFG001:                        EFG         =    -0.00910   *10**21  V / m**2
                               V20  TOT/SRF=     0.00450    -0.01181
                               V22  TOT/SRF=     0.00651    -0.00503
                               V22M TOT/SRF=     0.00000     0.00000
                               V21  TOT/SRF=     0.00000     0.00000
                               V21M TOT/SRF=     0.00000     0.00000

              0.00391    0.00000    0.00000        0.00391    0.00000    0.00000
              0.00000   -0.00910    0.00000        0.00000   -0.00910    0.00000
              0.00000    0.00000    0.00519        0.00000    0.00000    0.00519

         MAIN DIRECTIONS OF THE EFG   1.0000  0.0000  0.0000
                                      0.0000  1.0000  0.0000
                                      0.0000  0.0000  1.0000
:ANG001:  ANGLE WITH OLD X-AXIS =         0.0

:ETA001:                         ASYMM. ETA =     0.14039


       ATOMNUMBER=  2 Fe2        VCOUL-ZERO =  0.66157E+00
:EFG002:                        EFG         =    -0.00910   *10**21  V / m**2
                               V20  TOT/SRF=     0.00450    -0.01181
                               V22  TOT/SRF=     0.00651    -0.00503
                               V22M TOT/SRF=     0.00000     0.00000
                               V21  TOT/SRF=     0.00000     0.00000
                               V21M TOT/SRF=     0.00000     0.00000

              0.00391    0.00000    0.00000        0.00391    0.00000    0.00000
              0.00000   -0.00910    0.00000        0.00000   -0.00910    0.00000
              0.00000    0.00000    0.00519        0.00000    0.00000    0.00519

         MAIN DIRECTIONS OF THE EFG   1.0000  0.0000  0.0000
                                      0.0000  1.0000  0.0000
                                      0.0000  0.0000  1.0000
:ANG002:  ANGLE WITH OLD X-AXIS =         0.0

:ETA002:                         ASYMM. ETA =     0.14039


       ATOMNUMBER=  3 Rh1        VCOUL-ZERO =  0.62652E+00
:EFG003:                        EFG         =     0.00929   *10**21  V / m**2
                               V20  TOT/SRF=    -0.00338    -0.00153
                               V22  TOT/SRF=     0.00734    -0.01258
                               V22M TOT/SRF=     0.00000     0.00000
                               V21  TOT/SRF=     0.00000     0.00000
                               V21M TOT/SRF=     0.00000     0.00000

              0.00929    0.00000    0.00000        0.00929    0.00000    0.00000
              0.00000   -0.00539    0.00000        0.00000   -0.00539    0.00000
              0.00000    0.00000   -0.00390        0.00000    0.00000   -0.00390

         MAIN DIRECTIONS OF THE EFG   1.0000 -0.0000  0.0000
                                      0.0000  1.0000  0.0000
                                      0.0000  0.0000  1.0000
:ANG003:  ANGLE WITH OLD X-AXIS =         0.0

:ETA003:                         ASYMM. ETA =     0.16052


       ATOMNUMBER=  4 Fe3        VCOUL-ZERO =  0.66157E+00
:EFG004:                        EFG         =    -0.00909   *10**21  V / m**2
                               V20  TOT/SRF=     0.00449    -0.01182
                               V22  TOT/SRF=     0.00650    -0.00503
                               V22M TOT/SRF=     0.00000     0.00000
                               V21  TOT/SRF=     0.00000     0.00000
                               V21M TOT/SRF=     0.00000     0.00000

              0.00391    0.00000    0.00000        0.00391    0.00000    0.00000
              0.00000   -0.00909    0.00000        0.00000   -0.00909    0.00000
              0.00000    0.00000    0.00518        0.00000    0.00000    0.00518

         MAIN DIRECTIONS OF THE EFG   1.0000  0.0000  0.0000
                                      0.0000  1.0000  0.0000
                                      0.0000  0.0000  1.0000
:ANG004:  ANGLE WITH OLD X-AXIS =         0.0

:ETA004:                         ASYMM. ETA =     0.13962


       ATOMNUMBER=  5 Fe4        VCOUL-ZERO =  0.66157E+00
:EFG005:                        EFG         =    -0.00909   *10**21  V / m**2
                               V20  TOT/SRF=     0.00449    -0.01182
                               V22  TOT/SRF=     0.00650    -0.00503
                               V22M TOT/SRF=     0.00000     0.00000
                               V21  TOT/SRF=     0.00000     0.00000
                               V21M TOT/SRF=     0.00000     0.00000

              0.00391    0.00000    0.00000        0.00391    0.00000    0.00000
              0.00000   -0.00909    0.00000        0.00000   -0.00909    0.00000
              0.00000    0.00000    0.00518        0.00000    0.00000    0.00518

         MAIN DIRECTIONS OF THE EFG   1.0000  0.0000  0.0000
                                      0.0000  1.0000  0.0000
                                      0.0000  0.0000  1.0000
:ANG005:  ANGLE WITH OLD X-AXIS =         0.0

:ETA005:                         ASYMM. ETA =     0.13962


       ATOMNUMBER=  6 Rh3        VCOUL-ZERO =  0.62652E+00
:EFG006:                        EFG         =     0.00928   *10**21  V / m**2
                               V20  TOT/SRF=    -0.00339    -0.00154
                               V22  TOT/SRF=     0.00733    -0.01259
                               V22M TOT/SRF=     0.00000     0.00000
                               V21  TOT/SRF=     0.00000     0.00000
                               V21M TOT/SRF=     0.00000     0.00000

              0.00928    0.00000    0.00000        0.00928    0.00000    0.00000
              0.00000   -0.00537    0.00000        0.00000   -0.00537    0.00000
              0.00000    0.00000   -0.00391        0.00000    0.00000   -0.00391

         MAIN DIRECTIONS OF THE EFG   1.0000 -0.0000  0.0000
                                      0.0000  1.0000  0.0000
                                      0.0000  0.0000  1.0000
:ANG006:  ANGLE WITH OLD X-AXIS =         0.0

:ETA006:                         ASYMM. ETA =     0.15734


     HELLMANN-FEYNMAN-FORCE IN mRy/a.u. = |F|  Fx       Fy             Fz
:FHF001:   1.ATOM      0.000000000076      0.000000000000      0.000000000000     -0.000000000076

     HELLMANN-FEYNMAN-FORCE IN mRy/a.u. = |F|  Fx       Fy             Fz
:FHF002:   2.ATOM      0.000000000257      0.000000000000      0.000000000000      0.000000000257

     HELLMANN-FEYNMAN-FORCE IN mRy/a.u. = |F|  Fx       Fy             Fz
:FHF003:   3.ATOM      0.000000006274     -0.000000006267     -0.000000000299      0.000000000000

     HELLMANN-FEYNMAN-FORCE IN mRy/a.u. = |F|  Fx       Fy             Fz
:FHF004:   4.ATOM      0.000000000214      0.000000000000      0.000000000000      0.000000000214

     HELLMANN-FEYNMAN-FORCE IN mRy/a.u. = |F|  Fx       Fy             Fz
:FHF005:   5.ATOM      0.000000000280      0.000000000000      0.000000000000      0.000000000280

     HELLMANN-FEYNMAN-FORCE IN mRy/a.u. = |F|  Fx       Fy             Fz
:FHF006:   6.ATOM      0.000000003326     -0.000000002837     -0.000000001738      0.000000000000

:FIT001: LUSE= 13 SIGMA OF V-XC FIT FOR ATOM  1  0.5850374E-02
:FIT001: LUSE= 13 SIGMA OF V-XC FIT FOR ATOM  1  0.2618704E-02
:FIT002: LUSE= 13 SIGMA OF V-XC FIT FOR ATOM  2  0.5850374E-02
:FIT002: LUSE= 13 SIGMA OF V-XC FIT FOR ATOM  2  0.2618704E-02
:FIT003: LUSE= 13 SIGMA OF V-XC FIT FOR ATOM  3  0.1732162E-02
:FIT003: LUSE= 13 SIGMA OF V-XC FIT FOR ATOM  3  0.1584107E-02
:FIT004: LUSE= 13 SIGMA OF V-XC FIT FOR ATOM  4  0.5293794E-02
:FIT004: LUSE= 13 SIGMA OF V-XC FIT FOR ATOM  4  0.1820170E-02
:FIT005: LUSE= 13 SIGMA OF V-XC FIT FOR ATOM  5  0.5293794E-02
:FIT005: LUSE= 13 SIGMA OF V-XC FIT FOR ATOM  5  0.1820170E-02
:FIT006: LUSE= 13 SIGMA OF V-XC FIT FOR ATOM  6  0.1783484E-02
:FIT006: LUSE= 13 SIGMA OF V-XC FIT FOR ATOM  6  0.1612640E-02
:DEN  : DENSITY INTEGRAL  =        -19779.34767544   (Ry)
       ELS_POTENTIAL_AT Z=0 and Z=0.5:  -0.78604  -0.78604
       ELS_POTENTIAL_AT Y=0 and Y=0.5:  -0.45130  -0.45130
:VZERO:v0,v0c,v0x  -1.79555  -0.78604  -1.00951 v5,v5c,v5x  -1.79555  -0.78604  -1.00951
:VZERY:v0,v0c,v0x  -1.37909  -0.45130  -0.92779 v5,v5c,v5x  -1.37909  -0.45130  -0.92779
:VZERX:v0,v0c,v0x  -1.25030  -0.31643  -0.93387 v5,v5c,v5x  -1.25043  -0.31654  -0.93389
:LMAX-WF:   10   Non-Spherical LMAX:   4

          ATOMIC SPHERE DEPENDENT PARAMETERS FOR ATOM  Fe1       
:e__0001: OVERALL ENERGY PARAMETER IS    0.3000
          OVERALL BASIS SET ON ATOM IS LAPW
:E1_0001: E( 1)=    0.3000
             APW+lo
:E1_0001: E( 1)=   -3.1668   E(BOTTOM)=   -3.200   E(TOP)=   -3.134  1  2   175
             LOCAL ORBITAL
:E2_0001: E( 2)=    0.6150   E(BOTTOM)=    0.372   E(TOP)=    0.858  0  1   130
             APW+lo
:E0_0001: E( 0)=    0.3000
             APW+lo

          ATOMIC SPHERE DEPENDENT PARAMETERS FOR ATOM  Fe2       
:e__0002: OVERALL ENERGY PARAMETER IS    0.3000
          OVERALL BASIS SET ON ATOM IS LAPW
:E1_0002: E( 1)=    0.3000
             APW+lo
:E1_0002: E( 1)=   -3.1668   E(BOTTOM)=   -3.200   E(TOP)=   -3.134  1  2   175
             LOCAL ORBITAL
:E2_0002: E( 2)=    0.6150   E(BOTTOM)=    0.372   E(TOP)=    0.858  0  1   130
             APW+lo
:E0_0002: E( 0)=    0.3000
             APW+lo

          ATOMIC SPHERE DEPENDENT PARAMETERS FOR ATOM  Rh1       
:e__0003: OVERALL ENERGY PARAMETER IS    0.3000
          OVERALL BASIS SET ON ATOM IS LAPW
:E1_0003: E( 1)=    0.3000
             APW+lo
:E1_0003: E( 1)=   -2.6252   E(BOTTOM)=   -2.726   E(TOP)=   -2.524  2  3   172
             LOCAL ORBITAL
:E2_0003: E( 2)=    0.3000   E(BOTTOM)=    0.160   E(TOP)= -200.000  1 -1    89
             APW+lo
:E0_0003: E( 0)=    0.3000
             APW+lo

          ATOMIC SPHERE DEPENDENT PARAMETERS FOR ATOM  Fe3       
:e__0004: OVERALL ENERGY PARAMETER IS    0.3000
          OVERALL BASIS SET ON ATOM IS LAPW
:E1_0004: E( 1)=    0.3000
             APW+lo
:E1_0004: E( 1)=   -3.1668   E(BOTTOM)=   -3.200   E(TOP)=   -3.134  1  2   174
             LOCAL ORBITAL
:E2_0004: E( 2)=    0.6150   E(BOTTOM)=    0.372   E(TOP)=    0.858  0  1   125
             APW+lo
:E0_0004: E( 0)=    0.3000
             APW+lo

          ATOMIC SPHERE DEPENDENT PARAMETERS FOR ATOM  Fe4       
:e__0005: OVERALL ENERGY PARAMETER IS    0.3000
          OVERALL BASIS SET ON ATOM IS LAPW
:E1_0005: E( 1)=    0.3000
             APW+lo
:E1_0005: E( 1)=   -3.1668   E(BOTTOM)=   -3.200   E(TOP)=   -3.134  1  2   174
             LOCAL ORBITAL
:E2_0005: E( 2)=    0.6150   E(BOTTOM)=    0.372   E(TOP)=    0.858  0  1   125
             APW+lo
:E0_0005: E( 0)=    0.3000
             APW+lo

          ATOMIC SPHERE DEPENDENT PARAMETERS FOR ATOM  Rh3       
:e__0006: OVERALL ENERGY PARAMETER IS    0.3000
          OVERALL BASIS SET ON ATOM IS LAPW
:E1_0006: E( 1)=    0.3000
             APW+lo
:E1_0006: E( 1)=   -2.6252   E(BOTTOM)=   -2.726   E(TOP)=   -2.524  2  3   172
             LOCAL ORBITAL
:E2_0006: E( 2)=    0.3000   E(BOTTOM)=    0.160   E(TOP)= -200.000  1 -1    89
             APW+lo
:E0_0006: E( 0)=    0.3000
             APW+lo

       K=   0.00000   0.00000   0.00000            1
:RKM  : MATRIX SIZE   397LOs:  96  RKM= 6.91  WEIGHT= 1.00  PGR:    
       EIGENVALUES ARE:
:EIG00001:      -3.1686993   -3.1622816   -3.1619108   -3.1599879   -3.1599818
:EIG00006:      -3.1598950   -3.1598891   -3.1589117   -3.1583865   -3.1583803
:EIG00011:      -3.1549428   -3.1512685   -2.6342940   -2.6111888   -2.6096458
:EIG00016:      -2.6056954   -2.6056911   -2.6052027   -2.6051987   -2.5999742
:EIG00021:      -2.5989322   -2.5989288   -2.5871295   -2.5764305    0.0704696
:EIG00026:       0.2859464    0.3155802    0.3217749    0.3217802    0.3410454
:EIG00031:       0.3670148    0.3670188    0.3795321    0.4423318    0.4672207
:EIG00036:       0.4973744    0.4973789    0.5420116    0.5420143    0.5745394
:EIG00041:       0.5778896    0.5856258    0.5856334    0.5880525    0.6036648
:EIG00046:       0.6036725    0.6101823    0.6101835    0.6301170    0.6301177
 
:EIG00051:       0.6815262    0.6815280    0.6878826    0.6878888    0.7045939
:EIG00056:       0.7065441    0.7104868    0.7106619    0.7114448    0.7257580
:EIG00061:       0.7377840    0.7536655    0.7778087    0.7918149    0.7918232
:EIG00066:       0.8069971    0.8077127    0.8077133    0.8087972    0.8415601
:EIG00071:       0.8976539    1.3112863    1.3172093    1.3218779    1.3277793
:EIG00076:       1.3551978    1.7851657    1.8060560    1.8060662    1.8195114
:EIG00081:       1.8749500    1.8749592    1.9217785    1.9217824    1.9592716
:EIG00086:       1.9592768    1.9938690    1.9938725    1.9948872
       ********************************************************

:KPT   :      NUMBER OF K-POINTS:   310
:LMAX-WF:   10   Non-Spherical LMAX:   4

          ATOMIC SPHERE DEPENDENT PARAMETERS FOR ATOM  Fe1       
:e__0001: OVERALL ENERGY PARAMETER IS    0.3000
          OVERALL BASIS SET ON ATOM IS LAPW
:E1_0001: E( 1)=    0.3000
             APW+lo
:E1_0001: E( 1)=   -2.9785   E(BOTTOM)=   -3.012   E(TOP)=   -2.945  1  2   196
             LOCAL ORBITAL
:E2_0001: E( 2)=    0.5394   E(BOTTOM)=    0.539   E(TOP)= -200.000  0 -1   100
             APW+lo
:E0_0001: E( 0)=    0.3000
             APW+lo

          ATOMIC SPHERE DEPENDENT PARAMETERS FOR ATOM  Fe2       
:e__0002: OVERALL ENERGY PARAMETER IS    0.3000
          OVERALL BASIS SET ON ATOM IS LAPW
:E1_0002: E( 1)=    0.3000
             APW+lo
:E1_0002: E( 1)=   -2.9785   E(BOTTOM)=   -3.012   E(TOP)=   -2.945  1  2   196
             LOCAL ORBITAL
:E2_0002: E( 2)=    0.5394   E(BOTTOM)=    0.539   E(TOP)= -200.000  0 -1   100
             APW+lo
:E0_0002: E( 0)=    0.3000
             APW+lo

          ATOMIC SPHERE DEPENDENT PARAMETERS FOR ATOM  Rh1       
:e__0003: OVERALL ENERGY PARAMETER IS    0.3000
          OVERALL BASIS SET ON ATOM IS LAPW
:E1_0003: E( 1)=    0.3000
             APW+lo
:E1_0003: E( 1)=   -2.5229   E(BOTTOM)=   -2.622   E(TOP)=   -2.424  2  3   181
             LOCAL ORBITAL
:E2_0003: E( 2)=    0.3000   E(BOTTOM)=    0.280   E(TOP)= -200.000  1 -1    84
             APW+lo
:E0_0003: E( 0)=    0.3000
             APW+lo

          ATOMIC SPHERE DEPENDENT PARAMETERS FOR ATOM  Fe3       
:e__0004: OVERALL ENERGY PARAMETER IS    0.3000
          OVERALL BASIS SET ON ATOM IS LAPW
:E1_0004: E( 1)=    0.3000
             APW+lo
:E1_0004: E( 1)=   -2.9785   E(BOTTOM)=   -3.012   E(TOP)=   -2.945  1  2   192
             LOCAL ORBITAL
:E2_0004: E( 2)=    0.5393   E(BOTTOM)=    0.539   E(TOP)= -200.000  0 -1    98
             APW+lo
:E0_0004: E( 0)=    0.3000
             APW+lo

          ATOMIC SPHERE DEPENDENT PARAMETERS FOR ATOM  Fe4       
:e__0005: OVERALL ENERGY PARAMETER IS    0.3000
          OVERALL BASIS SET ON ATOM IS LAPW
:E1_0005: E( 1)=    0.3000
             APW+lo
:E1_0005: E( 1)=   -2.9785   E(BOTTOM)=   -3.012   E(TOP)=   -2.945  1  2   192
             LOCAL ORBITAL
:E2_0005: E( 2)=    0.5393   E(BOTTOM)=    0.539   E(TOP)= -200.000  0 -1    98
             APW+lo
:E0_0005: E( 0)=    0.3000
             APW+lo

          ATOMIC SPHERE DEPENDENT PARAMETERS FOR ATOM  Rh3       
:e__0006: OVERALL ENERGY PARAMETER IS    0.3000
          OVERALL BASIS SET ON ATOM IS LAPW
:E1_0006: E( 1)=    0.3000
             APW+lo
:E1_0006: E( 1)=   -2.5229   E(BOTTOM)=   -2.622   E(TOP)=   -2.424  2  3   181
             LOCAL ORBITAL
:E2_0006: E( 2)=    0.3000   E(BOTTOM)=    0.280   E(TOP)= -200.000  1 -1    84
             APW+lo
:E0_0006: E( 0)=    0.3000
             APW+lo

       K=   0.00000   0.00000   0.00000            1
:RKM  : MATRIX SIZE   397LOs:  96  RKM= 6.91  WEIGHT= 1.00  PGR:    
       EIGENVALUES ARE:
:EIG00001:      -2.9806706   -2.9738610   -2.9732121   -2.9715283   -2.9715222
:EIG00006:      -2.9711269   -2.9711192   -2.9700330   -2.9698346   -2.9698277
:EIG00011:      -2.9662182   -2.9624940   -2.5306687   -2.5086015   -2.5074636
:EIG00016:      -2.5034151   -2.5034125   -2.5030545   -2.5030507   -2.4982614
:EIG00021:      -2.4968478   -2.4968451   -2.4853325   -2.4748143    0.2168683
:EIG00026:       0.4281238    0.4567722    0.4610113    0.4610433    0.4830455
:EIG00031:       0.5177901    0.5178270    0.5265285    0.5732757    0.6100462
:EIG00036:       0.6387797    0.6387835    0.6989060    0.6989312    0.7095146
:EIG00041:       0.7095224    0.7204865    0.7304158    0.7369435    0.7369570
:EIG00046:       0.7442688    0.7442728    0.7567896    0.8070772    0.8070984
 
:EIG00051:       0.8504521    0.8504713    0.8512529    0.8532108    0.8532141
:EIG00056:       0.8546688    0.8608968    0.8615980    0.8720506    0.8861086
:EIG00061:       0.8995973    0.9026767    0.9485338    0.9485518    0.9615327
:EIG00066:       0.9615379    0.9626807    0.9675346    0.9676171    0.9980184
:EIG00071:       1.0157189    1.4661168    1.4681958    1.4733116    1.4739813
:EIG00076:       1.5036732    1.9401233    1.9664122    1.9836076    1.9836435
       ********************************************************

:KPT   :      NUMBER OF K-POINTS:   310
:GAP (global)   :    0.0    Ry =     0.0   eV (metal)
:GAP (this spin):    0.0    Ry =     0.0   eV (metal)
         Bandranges (emin - emax) and occupancy:
:BAN00060:  60    0.698321    0.759722  1.00000000
:BAN00061:  61    0.711374    0.778490  1.00000000
:BAN00062:  62    0.721185    0.787801  1.00000000
:BAN00063:  63    0.722243    0.794354  1.00000000
:BAN00064:  64    0.742466    0.810173  1.00000402
:BAN00065:  65    0.753738    0.895049  0.95796576
:BAN00066:  66    0.775164    0.895049  0.82702855
:BAN00067:  67    0.782681    0.988003  0.40776172
:BAN00068:  68    0.782682    0.988003  0.05671545
:BAN00069:  69    0.807898    1.183671  0.00385192
:BAN00070:  70    0.818470    1.228459  0.00008379
:BAN00071:  71    0.872808    1.276576  0.00000000
:BAN00072:  72    1.024176    1.312110  0.00000000
:BAN00073:  73    1.193911    1.438946  0.00000000
:BAN00074:  74    1.273130    1.475033  0.00000000
:BAN00075:  75    1.297086    1.516760  0.00000000
        Energy to separate low and high energystates:    0.02047


:NOE  : NUMBER OF ELECTRONS          =  116.000

:FER  : F E R M I - ENERGY(TETRAH.M.)=   0.8237249042
:GMA  : POTENTIAL AND CHARGE CUT-OFF  12.00 Ry**.5

:POS001: ATOM   -1 X,Y,Z = 0.00000 0.00000 0.00000  MULT= 1  ZZ= 26.000  Fe1       

       LMMAX 16
       LM=   0 0  1 0  2 0  2 2  3 0  3 2  4 0  4 2  4 4  5 0  5 2  5 4  6 0  6 2  6 4  6 6

:CHA001: TOTAL VALENCE CHARGE INSIDE SPHERE   1 =   7.9594    (RMT=  2.4300 )
:PCS001: PARTIAL CHARGES SPHERE =  1 S,P,D,F,PX,PY,PZ,D-Z2,D-X2Y2,D-XY,D-XZ,D-YZ 
:QTL001: 0.2455 3.2853 4.3920 0.0270 1.0942 1.1006 1.0905 0.8751 0.8936 0.8512 0.8692 0.9028
        Q-s-low E-s-low   Q-p-low E-p-low   Q-d-low E-d-low   Q-f-low E-f-low
:EPL001:  0.0004 -2.7091    2.9947 -3.1597    0.0009 -2.7149    0.0004 -2.7189
        Q-s-hi  E-s-hi    Q-p-hi  E-p-hi    Q-d-hi  E-d-hi    Q-f-hi  E-f-hi 
:EPH001:  0.2451  0.3378    0.2906  0.4998    4.3911  0.6346    0.0266  0.5987

                      VXX         VYY         VZZ       UP TO R
:VZZ001:             0.45125    -0.57402     0.12277       2.430

:POS002: ATOM   -2 X,Y,Z = 0.00000 0.00000 0.50000  MULT= 1  ZZ= 26.000  Fe2       

       LMMAX 16
       LM=   0 0  1 0  2 0  2 2  3 0  3 2  4 0  4 2  4 4  5 0  5 2  5 4  6 0  6 2  6 4  6 6

:CHA002: TOTAL VALENCE CHARGE INSIDE SPHERE   2 =   7.9594    (RMT=  2.4300 )
:PCS002: PARTIAL CHARGES SPHERE =  2 S,P,D,F,PX,PY,PZ,D-Z2,D-X2Y2,D-XY,D-XZ,D-YZ 
:QTL002: 0.2455 3.2853 4.3920 0.0270 1.0942 1.1006 1.0905 0.8751 0.8936 0.8512 0.8692 0.9028
        Q-s-low E-s-low   Q-p-low E-p-low   Q-d-low E-d-low   Q-f-low E-f-low
:EPL002:  0.0004 -2.7091    2.9947 -3.1597    0.0009 -2.7149    0.0004 -2.7189
        Q-s-hi  E-s-hi    Q-p-hi  E-p-hi    Q-d-hi  E-d-hi    Q-f-hi  E-f-hi 
:EPH002:  0.2451  0.3378    0.2906  0.4998    4.3911  0.6346    0.0266  0.5987

                      VXX         VYY         VZZ       UP TO R
:VZZ002:             0.45125    -0.57402     0.12277       2.430

:POS003: ATOM   -3 X,Y,Z = 0.00000 0.25000 0.25000  MULT= 2  ZZ= 45.000  Rh1       

       LMMAX 28
       LM=   0 0  1 1 -1 1  2 0  2 2 -2 2  3 1 -3 1  3 3 -3 3  4 0  4 2 -4 2  4 4 -4 4  5 1 -5 1
         5 3 -5 3  5 5 -5 5  6 0  6 2 -6 2  6 4 -6 4  6 6 -6 6

:CHA003: TOTAL VALENCE CHARGE INSIDE SPHERE   3 =   7.2808    (RMT=  2.4300 )
:PCS003: PARTIAL CHARGES SPHERE =  3 S,P,D,F,PX,PY,PZ,D-Z2,D-X2Y2,D-XY,D-XZ,D-YZ 
:QTL003: 0.2032 3.1985 3.8364 0.0327 1.0613 1.0705 1.0666 0.8027 0.7443 0.8098 0.7648 0.7148
        Q-s-low E-s-low   Q-p-low E-p-low   Q-d-low E-d-low   Q-f-low E-f-low
:EPL003:  0.0004 -2.7133    2.9785 -2.6047    0.0009 -2.7167    0.0004 -2.7236
        Q-s-hi  E-s-hi    Q-p-hi  E-p-hi    Q-d-hi  E-d-hi    Q-f-hi  E-f-hi 
:EPH003:  0.2028  0.3589    0.2200  0.5182    3.8355  0.5817    0.0323  0.5986

                      QXX         QXY         QYY         QZZ       UP TO R
:VZZ003:             0.09029     0.00000    -0.37186     0.28156       2.430

:POS004: ATOM   -4 X,Y,Z = 0.50000 0.00000 0.25000  MULT= 1  ZZ= 26.000  Fe3       

       LMMAX 16
       LM=   0 0  1 0  2 0  2 2  3 0  3 2  4 0  4 2  4 4  5 0  5 2  5 4  6 0  6 2  6 4  6 6

:CHA004: TOTAL VALENCE CHARGE INSIDE SPHERE   4 =   7.9595    (RMT=  2.4300 )
:PCS004: PARTIAL CHARGES SPHERE =  4 S,P,D,F,PX,PY,PZ,D-Z2,D-X2Y2,D-XY,D-XZ,D-YZ 
:QTL004: 0.2455 3.2852 4.3921 0.0270 1.0942 1.1005 1.0905 0.8751 0.8936 0.8512 0.8692 0.9030
        Q-s-low E-s-low   Q-p-low E-p-low   Q-d-low E-d-low   Q-f-low E-f-low
:EPL004:  0.0004 -2.7091    2.9947 -3.1597    0.0009 -2.7149    0.0004 -2.7189
        Q-s-hi  E-s-hi    Q-p-hi  E-p-hi    Q-d-hi  E-d-hi    Q-f-hi  E-f-hi 
:EPH004:  0.2451  0.3378    0.2905  0.4998    4.3912  0.6346    0.0266  0.5987

                      VXX         VYY         VZZ       UP TO R
:VZZ004:             0.45521    -0.57445     0.11924       2.430

:POS005: ATOM   -5 X,Y,Z = 0.50000 0.00000 0.75000  MULT= 1  ZZ= 26.000  Fe4       

       LMMAX 16
       LM=   0 0  1 0  2 0  2 2  3 0  3 2  4 0  4 2  4 4  5 0  5 2  5 4  6 0  6 2  6 4  6 6

:CHA005: TOTAL VALENCE CHARGE INSIDE SPHERE   5 =   7.9595    (RMT=  2.4300 )
:PCS005: PARTIAL CHARGES SPHERE =  5 S,P,D,F,PX,PY,PZ,D-Z2,D-X2Y2,D-XY,D-XZ,D-YZ 
:QTL005: 0.2455 3.2852 4.3921 0.0270 1.0942 1.1005 1.0905 0.8751 0.8936 0.8512 0.8692 0.9030
        Q-s-low E-s-low   Q-p-low E-p-low   Q-d-low E-d-low   Q-f-low E-f-low
:EPL005:  0.0004 -2.7091    2.9947 -3.1597    0.0009 -2.7149    0.0004 -2.7189
        Q-s-hi  E-s-hi    Q-p-hi  E-p-hi    Q-d-hi  E-d-hi    Q-f-hi  E-f-hi 
:EPH005:  0.2451  0.3378    0.2905  0.4998    4.3912  0.6346    0.0266  0.5987

                      VXX         VYY         VZZ       UP TO R
:VZZ005:             0.45521    -0.57445     0.11924       2.430

:POS006: ATOM   -6 X,Y,Z = 0.50000 0.25000 0.50000  MULT= 2  ZZ= 45.000  Rh3       

       LMMAX 28
       LM=   0 0  1 1 -1 1  2 0  2 2 -2 2  3 1 -3 1  3 3 -3 3  4 0  4 2 -4 2  4 4 -4 4  5 1 -5 1
         5 3 -5 3  5 5 -5 5  6 0  6 2 -6 2  6 4 -6 4  6 6 -6 6

:CHA006: TOTAL VALENCE CHARGE INSIDE SPHERE   6 =   7.2809    (RMT=  2.4300 )
:PCS006: PARTIAL CHARGES SPHERE =  6 S,P,D,F,PX,PY,PZ,D-Z2,D-X2Y2,D-XY,D-XZ,D-YZ 
:QTL006: 0.2032 3.1985 3.8365 0.0327 1.0613 1.0705 1.0666 0.8028 0.7442 0.8098 0.7648 0.7148
        Q-s-low E-s-low   Q-p-low E-p-low   Q-d-low E-d-low   Q-f-low E-f-low
:EPL006:  0.0004 -2.7133    2.9785 -2.6047    0.0009 -2.7167    0.0004 -2.7236
        Q-s-hi  E-s-hi    Q-p-hi  E-p-hi    Q-d-hi  E-d-hi    Q-f-hi  E-f-hi 
:EPH006:  0.2029  0.3590    0.2200  0.5182    3.8356  0.5817    0.0323  0.5986

                      QXX         QXY         QYY         QZZ       UP TO R
:VZZ006:             0.08951    -0.00000    -0.36352     0.27401       2.430

:CHA  : TOTAL VALENCE CHARGE INSIDE UNIT CELL =      66.253411

:SUM  : SUM OF EIGENVALUES =         -44.821726320



   QTL-B VALUE .EQ.    2.26620   in Band of energy    0.77887   ATOM=    3   L=  2
    Most likely no ghostbands, but adjust Energy-parameters for this ATOM and L


:WARN : QTL-B value eq.   2.27 in Band of energy   0.77887  ATOM=    3  L=  2
:WARN : You should change the E-parameter for this atom and L-value in case.in1 (or try the -in1new switch)
:GAP (global)   :    0.0    Ry =     0.0   eV (metal)
:GAP (this spin):    0.0    Ry =     0.0   eV (metal)
         Bandranges (emin - emax) and occupancy:
:BAN00043:  43    0.662735    0.769066  1.00000000
:BAN00044:  44    0.672077    0.780789  1.00000000
:BAN00045:  45    0.677927    0.790754  1.00000000
:BAN00046:  46    0.692034    0.792037  1.00000000
:BAN00047:  47    0.698345    0.811548  1.00000000
:BAN00048:  48    0.698355    0.811589  1.00000000
:BAN00049:  49    0.772794    0.856231  0.77531457
:BAN00050:  50    0.784802    0.860735  0.63117024
:BAN00051:  51    0.799668    0.869908  0.26134807
:BAN00052:  52    0.806128    0.871541  0.07870887
:BAN00053:  53    0.822067    0.887351  0.00004704
:BAN00054:  54    0.826415    0.887351  0.00000000
:BAN00055:  55    0.837184    0.894692  0.00000000
:BAN00056:  56    0.844479    0.896996  0.00000000
:BAN00057:  57    0.852504    0.902193  0.00000000
:BAN00058:  58    0.853042    0.903216  0.00000000
        Energy to separate low and high energystates:    0.16687


:NOE  : NUMBER OF ELECTRONS          =  116.000

:FER  : F E R M I - ENERGY(TETRAH.M.)=   0.8237249042
:GMA  : POTENTIAL AND CHARGE CUT-OFF  12.00 Ry**.5

:POS001: ATOM   -1 X,Y,Z = 0.00000 0.00000 0.00000  MULT= 1  ZZ= 26.000  Fe1       

       LMMAX 16
       LM=   0 0  1 0  2 0  2 2  3 0  3 2  4 0  4 2  4 4  5 0  5 2  5 4  6 0  6 2  6 4  6 6

:CHA001: TOTAL VALENCE CHARGE INSIDE SPHERE   1 =   5.2850    (RMT=  2.4300 )
:PCS001: PARTIAL CHARGES SPHERE =  1 S,P,D,F,PX,PY,PZ,D-Z2,D-X2Y2,D-XY,D-XZ,D-YZ 
:QTL001: 0.2293 3.2514 1.7811 0.0180 1.0859 1.0846 1.0808 0.3887 0.2782 0.4053 0.4531 0.2557
        Q-s-low E-s-low   Q-p-low E-p-low   Q-d-low E-d-low   Q-f-low E-f-low
:EPL001:  0.0004 -2.6004    2.9944 -2.9711    0.0008 -2.6040    0.0004 -2.6063
        Q-s-hi  E-s-hi    Q-p-hi  E-p-hi    Q-d-hi  E-d-hi    Q-f-hi  E-f-hi 
:EPH001:  0.2289  0.4513    0.2570  0.6115    1.7802  0.6873    0.0176  0.6733

                      VXX         VYY         VZZ       UP TO R
:VZZ001:            -1.00609     2.10833    -1.10224       2.430

:POS002: ATOM   -2 X,Y,Z = 0.00000 0.00000 0.50000  MULT= 1  ZZ= 26.000  Fe2       

       LMMAX 16
       LM=   0 0  1 0  2 0  2 2  3 0  3 2  4 0  4 2  4 4  5 0  5 2  5 4  6 0  6 2  6 4  6 6

:CHA002: TOTAL VALENCE CHARGE INSIDE SPHERE   2 =   5.2850    (RMT=  2.4300 )
:PCS002: PARTIAL CHARGES SPHERE =  2 S,P,D,F,PX,PY,PZ,D-Z2,D-X2Y2,D-XY,D-XZ,D-YZ 
:QTL002: 0.2293 3.2514 1.7811 0.0180 1.0859 1.0846 1.0808 0.3887 0.2783 0.4053 0.4531 0.2557
        Q-s-low E-s-low   Q-p-low E-p-low   Q-d-low E-d-low   Q-f-low E-f-low
:EPL002:  0.0004 -2.6004    2.9944 -2.9711    0.0008 -2.6040    0.0004 -2.6063
        Q-s-hi  E-s-hi    Q-p-hi  E-p-hi    Q-d-hi  E-d-hi    Q-f-hi  E-f-hi 
:EPH002:  0.2289  0.4513    0.2570  0.6115    1.7802  0.6873    0.0176  0.6733

                      VXX         VYY         VZZ       UP TO R
:VZZ002:            -1.00609     2.10833    -1.10224       2.430

:POS003: ATOM   -3 X,Y,Z = 0.00000 0.25000 0.25000  MULT= 2  ZZ= 45.000  Rh1       

       LMMAX 28
       LM=   0 0  1 1 -1 1  2 0  2 2 -2 2  3 1 -3 1  3 3 -3 3  4 0  4 2 -4 2  4 4 -4 4  5 1 -5 1
         5 3 -5 3  5 5 -5 5  6 0  6 2 -6 2  6 4 -6 4  6 6 -6 6

:CHA003: TOTAL VALENCE CHARGE INSIDE SPHERE   3 =   5.9894    (RMT=  2.4300 )
:PCS003: PARTIAL CHARGES SPHERE =  3 S,P,D,F,PX,PY,PZ,D-Z2,D-X2Y2,D-XY,D-XZ,D-YZ 
:QTL003: 0.1914 3.1684 2.6027 0.0212 1.0545 1.0594 1.0545 0.4358 0.5822 0.4323 0.5957 0.5567
        Q-s-low E-s-low   Q-p-low E-p-low   Q-d-low E-d-low   Q-f-low E-f-low
:EPL003:  0.0003 -2.6033    2.9794 -2.5024    0.0008 -2.6051    0.0004 -2.6099
        Q-s-hi  E-s-hi    Q-p-hi  E-p-hi    Q-d-hi  E-d-hi    Q-f-hi  E-f-hi 
:EPH003:  0.1911  0.4805    0.1890  0.6313    2.6019  0.6186    0.0208  0.6758

                      QXX         QXY         QYY         QZZ       UP TO R
:VZZ003:            -0.78350     0.00000    -0.04860     0.83209       2.430

:POS004: ATOM   -4 X,Y,Z = 0.50000 0.00000 0.25000  MULT= 1  ZZ= 26.000  Fe3       

       LMMAX 16
       LM=   0 0  1 0  2 0  2 2  3 0  3 2  4 0  4 2  4 4  5 0  5 2  5 4  6 0  6 2  6 4  6 6

:CHA004: TOTAL VALENCE CHARGE INSIDE SPHERE   4 =   5.2857    (RMT=  2.4300 )
:PCS004: PARTIAL CHARGES SPHERE =  4 S,P,D,F,PX,PY,PZ,D-Z2,D-X2Y2,D-XY,D-XZ,D-YZ 
:QTL004: 0.2293 3.2514 1.7816 0.0180 1.0860 1.0846 1.0808 0.3890 0.2785 0.4054 0.4530 0.2557
        Q-s-low E-s-low   Q-p-low E-p-low   Q-d-low E-d-low   Q-f-low E-f-low
:EPL004:  0.0004 -2.6004    2.9944 -2.9711    0.0008 -2.6040    0.0004 -2.6063
        Q-s-hi  E-s-hi    Q-p-hi  E-p-hi    Q-d-hi  E-d-hi    Q-f-hi  E-f-hi 
:EPH004:  0.2290  0.4513    0.2570  0.6115    1.7808  0.6874    0.0176  0.6733

                      VXX         VYY         VZZ       UP TO R
:VZZ004:            -1.00225     2.09814    -1.09589       2.430

:POS005: ATOM   -5 X,Y,Z = 0.50000 0.00000 0.75000  MULT= 1  ZZ= 26.000  Fe4       

       LMMAX 16
       LM=   0 0  1 0  2 0  2 2  3 0  3 2  4 0  4 2  4 4  5 0  5 2  5 4  6 0  6 2  6 4  6 6

:CHA005: TOTAL VALENCE CHARGE INSIDE SPHERE   5 =   5.2857    (RMT=  2.4300 )
:PCS005: PARTIAL CHARGES SPHERE =  5 S,P,D,F,PX,PY,PZ,D-Z2,D-X2Y2,D-XY,D-XZ,D-YZ 
:QTL005: 0.2293 3.2514 1.7816 0.0180 1.0860 1.0846 1.0808 0.3890 0.2785 0.4054 0.4530 0.2557
        Q-s-low E-s-low   Q-p-low E-p-low   Q-d-low E-d-low   Q-f-low E-f-low
:EPL005:  0.0004 -2.6004    2.9944 -2.9711    0.0008 -2.6040    0.0004 -2.6063
        Q-s-hi  E-s-hi    Q-p-hi  E-p-hi    Q-d-hi  E-d-hi    Q-f-hi  E-f-hi 
:EPH005:  0.2290  0.4513    0.2570  0.6115    1.7808  0.6874    0.0176  0.6733

                      VXX         VYY         VZZ       UP TO R
:VZZ005:            -1.00225     2.09814    -1.09589       2.430

:POS006: ATOM   -6 X,Y,Z = 0.50000 0.25000 0.50000  MULT= 2  ZZ= 45.000  Rh3       

       LMMAX 28
       LM=   0 0  1 1 -1 1  2 0  2 2 -2 2  3 1 -3 1  3 3 -3 3  4 0  4 2 -4 2  4 4 -4 4  5 1 -5 1
         5 3 -5 3  5 5 -5 5  6 0  6 2 -6 2  6 4 -6 4  6 6 -6 6

:CHA006: TOTAL VALENCE CHARGE INSIDE SPHERE   6 =   5.9894    (RMT=  2.4300 )
:PCS006: PARTIAL CHARGES SPHERE =  6 S,P,D,F,PX,PY,PZ,D-Z2,D-X2Y2,D-XY,D-XZ,D-YZ 
:QTL006: 0.1914 3.1684 2.6028 0.0212 1.0545 1.0594 1.0545 0.4357 0.5822 0.4325 0.5957 0.5568
        Q-s-low E-s-low   Q-p-low E-p-low   Q-d-low E-d-low   Q-f-low E-f-low
:EPL006:  0.0003 -2.6033    2.9794 -2.5024    0.0008 -2.6051    0.0004 -2.6099
        Q-s-hi  E-s-hi    Q-p-hi  E-p-hi    Q-d-hi  E-d-hi    Q-f-hi  E-f-hi 
:EPH006:  0.1911  0.4805    0.1890  0.6313    2.6019  0.6186    0.0208  0.6758

                      QXX         QXY         QYY         QZZ       UP TO R
:VZZ006:            -0.78386     0.00000    -0.06261     0.84647       2.430

:CHA  : TOTAL VALENCE CHARGE INSIDE UNIT CELL =      49.746589

:SUM  : SUM OF EIGENVALUES =         -49.695789351



   QTL-B VALUE .EQ.    2.71303   in Band of energy    0.85045   ATOM=    5   L=  2
    Most likely no ghostbands, but adjust Energy-parameters for this ATOM and L


:WARN : QTL-B value eq.   2.71 in Band of energy   0.85045  ATOM=    5  L=  2
:WARN : You should change the E-parameter for this atom and L-value in case.in1 (or try the -in1new switch)

        1.ATOM      Fe1                   5 CORE STATES
       CORE-FORCE in mRy/a.u. = |F|      Fx             Fy             Fz
:FCO001:   1.ATOM      0.000000002883      0.000000000000      0.000000000000     -0.000000002883

:1S 001: 1S                -512.920451937 Ry
:2S 001: 2S                 -58.869220766 Ry
:2PP001: 2P*                -50.562292403 Ry
:2P 001: 2P                 -49.645679320 Ry
:3S 001: 3S                  -5.647716923 Ry

        2.ATOM      Fe2                   5 CORE STATES
       CORE-FORCE in mRy/a.u. = |F|      Fx             Fy             Fz
:FCO002:   2.ATOM      0.000000004534      0.000000000000      0.000000000000      0.000000004534

:1S 002: 1S                -512.920451937 Ry
:2S 002: 2S                 -58.869220766 Ry
:2PP002: 2P*                -50.562292403 Ry
:2P 002: 2P                 -49.645679320 Ry
:3S 002: 3S                  -5.647716923 Ry

        3.ATOM      Rh1                  10 CORE STATES
       CORE-FORCE in mRy/a.u. = |F|      Fx             Fy             Fz
:FCO003:   3.ATOM      0.000000023509      0.000000023508     -0.000000000159      0.000000000000

:1S 003: 1S               -1691.215775249 Ry
:2S 003: 2S                -244.117917136 Ry
:2PP003: 2P*               -225.924756222 Ry
:2P 003: 2P                -215.296075004 Ry
:3S 003: 3S                 -42.655735945 Ry
:3PP003: 3P*                -35.538395927 Ry
:3P 003: 3P                 -33.709888929 Ry
:3DD003: 3D*                -21.114557909 Ry
:3D 003: 3D                 -20.754011712 Ry
:4S 003: 4S                  -4.948668867 Ry

        4.ATOM      Fe3                   5 CORE STATES
       CORE-FORCE in mRy/a.u. = |F|      Fx             Fy             Fz
:FCO004:   4.ATOM      0.000000000022      0.000000000000      0.000000000000     -0.000000000022

:1S 004: 1S                -512.920457772 Ry
:2S 004: 2S                 -58.869227539 Ry
:2PP004: 2P*                -50.562299259 Ry
:2P 004: 2P                 -49.645686173 Ry
:3S 004: 3S                  -5.647720075 Ry

        5.ATOM      Fe4                   5 CORE STATES
       CORE-FORCE in mRy/a.u. = |F|      Fx             Fy             Fz
:FCO005:   5.ATOM      0.000000000019      0.000000000000      0.000000000000     -0.000000000019

:1S 005: 1S                -512.920457772 Ry
:2S 005: 2S                 -58.869227539 Ry
:2PP005: 2P*                -50.562299259 Ry
:2P 005: 2P                 -49.645686173 Ry
:3S 005: 3S                  -5.647720075 Ry

        6.ATOM      Rh3                  10 CORE STATES
       CORE-FORCE in mRy/a.u. = |F|      Fx             Fy             Fz
:FCO006:   6.ATOM      0.000000001141      0.000000001064     -0.000000000411      0.000000000000

:1S 006: 1S               -1691.215771309 Ry
:2S 006: 2S                -244.117920282 Ry
:2PP006: 2P*               -225.924759651 Ry
:2P 006: 2P                -215.296078506 Ry
:3S 006: 3S                 -42.655740211 Ry
:3PP006: 3P*                -35.538400244 Ry
:3P 006: 3P                 -33.709893246 Ry
:3DD006: 3D*                -21.114562234 Ry
:3D 006: 3D                 -20.754016035 Ry
:4S 006: 4S                  -4.948672428 Ry

        1.ATOM      Fe1                   5 CORE STATES
       CORE-FORCE in mRy/a.u. = |F|      Fx             Fy             Fz
:FCO001:   1.ATOM      0.000000008965      0.000000000000      0.000000000000     -0.000000008965

:1S 001: 1S                -512.919648898 Ry
:2S 001: 2S                 -58.787391100 Ry
:2PP001: 2P*                -50.501289159 Ry
:2P 001: 2P                 -49.582901885 Ry
:3S 001: 3S                  -5.456221967 Ry

        2.ATOM      Fe2                   5 CORE STATES
       CORE-FORCE in mRy/a.u. = |F|      Fx             Fy             Fz
:FCO002:   2.ATOM      0.000000003829      0.000000000000      0.000000000000      0.000000003829

:1S 002: 1S                -512.919648898 Ry
:2S 002: 2S                 -58.787391100 Ry
:2PP002: 2P*                -50.501289159 Ry
:2P 002: 2P                 -49.582901885 Ry
:3S 002: 3S                  -5.456221967 Ry

        3.ATOM      Rh1                  10 CORE STATES
       CORE-FORCE in mRy/a.u. = |F|      Fx             Fy             Fz
:FCO003:   3.ATOM      0.000000013527      0.000000012877      0.000000004141      0.000000000000

:1S 003: 1S               -1691.214625760 Ry
:2S 003: 2S                -244.097068708 Ry
:2PP003: 2P*               -225.909579685 Ry
:2P 003: 2P                -215.279843107 Ry
:3S 003: 3S                 -42.643863749 Ry
:3PP003: 3P*                -35.524717142 Ry
:3P 003: 3P                 -33.696628462 Ry
:3DD003: 3D*                -21.094563523 Ry
:3D 003: 3D                 -20.734074852 Ry
:4S 003: 4S                  -4.853463358 Ry

        4.ATOM      Fe3                   5 CORE STATES
       CORE-FORCE in mRy/a.u. = |F|      Fx             Fy             Fz
:FCO004:   4.ATOM      0.000000000007      0.000000000000      0.000000000000      0.000000000007

:1S 004: 1S                -512.919654748 Ry
:2S 004: 2S                 -58.787397891 Ry
:2PP004: 2P*                -50.501296043 Ry
:2P 004: 2P                 -49.582908766 Ry
:3S 004: 3S                  -5.456242273 Ry

        5.ATOM      Fe4                   5 CORE STATES
       CORE-FORCE in mRy/a.u. = |F|      Fx             Fy             Fz
:FCO005:   5.ATOM      0.000000000004      0.000000000000      0.000000000000     -0.000000000004

:1S 005: 1S                -512.919654748 Ry
:2S 005: 2S                 -58.787397891 Ry
:2PP005: 2P*                -50.501296043 Ry
:2P 005: 2P                 -49.582908766 Ry
:3S 005: 3S                  -5.456242273 Ry

        6.ATOM      Rh3                  10 CORE STATES
       CORE-FORCE in mRy/a.u. = |F|      Fx             Fy             Fz
:FCO006:   6.ATOM      0.000000001098      0.000000001014     -0.000000000420      0.000000000000

:1S 006: 1S               -1691.214621835 Ry
:2S 006: 2S                -244.097071860 Ry
:2PP006: 2P*               -225.909583127 Ry
:2P 006: 2P                -215.279846621 Ry
:3S 006: 3S                 -42.643868040 Ry
:3PP006: 3P*                -35.524721492 Ry
:3P 006: 3P                 -33.696632802 Ry
:3DD006: 3D*                -21.094567867 Ry
:3D 006: 3D                 -20.734079195 Ry
:4S 006: 4S                  -4.853460968 Ry
:CINT001 Core Integral Atom   1 Up    5.999608 Dn   5.999597 Total  11.999205
:CINT002 Core Integral Atom   2 Up    5.999608 Dn   5.999597 Total  11.999205
:CINT003 Core Integral Atom   3 Up   14.998578 Dn  14.998636 Total  29.997214
:CINT004 Core Integral Atom   4 Up    5.999609 Dn   5.999594 Total  11.999202
:CINT005 Core Integral Atom   5 Up    5.999609 Dn   5.999594 Total  11.999202
:CINT006 Core Integral Atom   6 Up   14.998578 Dn  14.998638 Total  29.997216

       DENSITY AT NUCLEUS
        JATOM        VALENCE       SEMI-CORE          CORE           TOTAL
:RTO001:   1        7.053784        0.000000    15301.562922    15308.616706
:RTO002:   2        7.053784        0.000000    15301.562922    15308.616706
:RTO003:   3       21.568038        0.000000   129451.941063   129473.509102
:RTO004:   4        7.490775        0.000000    16256.758755    16264.249530
:RTO005:   5        7.490775        0.000000    16256.758755    16264.249530
:RTO006:   6       25.870469        0.000000   155310.113307   155335.983776

       HYPERFINE FIELDS FOR THOMSON RADIUS
:HFF001:          120.694           0.000        -300.865        -180.171 (KGAUSS)
:HFF002:          120.694           0.000        -300.865        -180.171 (KGAUSS)
:HFF003:          209.864           0.000        -476.037        -266.173 (KGAUSS)
:HFF004:          120.354           0.000        -300.227        -179.873 (KGAUSS)
:HFF005:          120.354           0.000        -300.227        -179.873 (KGAUSS)
:HFF006:          210.626           0.000        -476.388        -265.761 (KGAUSS)
     
       CHARGES OF NEW CHARGE DENSITY
:NTO   : INTERSTITIAL     UP =     5.292217 DN =     4.647615 TOT =     9.939832
:NPC   : PW Pseudocharge  UP =    12.719549 DN =    10.348051 TOT =    23.067600
:NTO001: CHARGE SPHERE  1 UP =    13.959034 DN =    11.284629 TOT =    25.243663
:NTO002: CHARGE SPHERE  2 UP =    13.959034 DN =    11.284629 TOT =    25.243664
:NTO003: CHARGE SPHERE  3 UP =    22.279364 DN =    20.988010 TOT =    43.267374
:NTO004: CHARGE SPHERE  4 UP =    13.959105 DN =    11.285262 TOT =    25.244367
:NTO005: CHARGE SPHERE  5 UP =    13.959105 DN =    11.285263 TOT =    25.244367
:NTO006: CHARGE SPHERE  6 UP =    22.279430 DN =    20.988023 TOT =    43.267454

:NEC01: NUCLEAR AND ELECTRONIC CHARGE    284.00000   283.98555
     
       CHARGES OF OLD CHARGE DENSITY
:OTO   : INTERSTITIAL     UP =     5.395322 DN =     2.214204 TOT =     7.609525
:OPC   : PW Pseudocharge  UP =    25.060035 DN =    12.655828 TOT =    37.715863
:OTO001: CHARGE SPHERE  1 UP =    14.055561 DN =    11.165094 TOT =    25.220655
:OTO002: CHARGE SPHERE  2 UP =    14.055561 DN =    11.165094 TOT =    25.220655
:OTO003: CHARGE SPHERE  3 UP =    23.096864 DN =    20.781896 TOT =    43.878760
:OTO004: CHARGE SPHERE  4 UP =    14.055553 DN =    11.165089 TOT =    25.220642
:OTO005: CHARGE SPHERE  5 UP =    14.055553 DN =    11.165089 TOT =    25.220642
:OTO006: CHARGE SPHERE  6 UP =    23.096854 DN =    20.781890 TOT =    43.878744

:NEC02: NUCLEAR AND ELECTRONIC CHARGE    284.00000   284.00713
     
       CONVERGENCE TEST
:DTO001: DIFFERENCE SPHERE  1 UP =  0.0959033 DN =  0.4143779 TOT =  0.5102812
:DTO002: DIFFERENCE SPHERE  2 UP =  0.0959032 DN =  0.4143779 TOT =  0.5102811
:DTO003: DIFFERENCE SPHERE  3 UP =  0.5891116 DN =  0.2818571 TOT =  0.8709687
:DTO004: DIFFERENCE SPHERE  4 UP =  0.0957786 DN =  0.4139723 TOT =  0.5097509
:DTO005: DIFFERENCE SPHERE  5 UP =  0.0957786 DN =  0.4139723 TOT =  0.5097509
:DTO006: DIFFERENCE SPHERE  6 UP =  0.5890796 DN =  0.2818098 TOT =  0.8708894

:DIS  :  CHARGE DISTANCE       ( 0.5891116 for atom    3 spin 1)      1.3809450
 PW Mixed is          702
 
******************************************************
* MULTISECANT MIXING VER9 RELEASE 10.4.0              *
* Standard Mode with controls                        *
* Fixed density scale                                *
* Regularization       1.000E-04                     *
* Trust Upper Limit    5.000E+00                     *
* Max Number of Memory Steps    8                    *
******************************************************
 
:PWTMP   2.3530E+02  9.1833E+02  7.1614E+02
:PLANE:  PW TOTAL      6.2591 DISTAN   4.04E+00  6.46E+01 %
:CHARG:  CLM/ATOM    149.9424 DISTAN   2.76E-01  1.84E-01 %
INFO: Reducing dbase  2.50000E-02 1.38095E+00 2.12741E-02
 
Step History
        DMIX         DMIXT        Red     Pred      Trust     Lambda    MagRel    MagAbs     Beta
  1   3.5000E-02   3.5000E-02 -1.00E+00  1.00E+00 -1.00E+01  1.00E+00  3.50E-02  3.50E-02  1.00E+00
:INFO :  Note, Pratt in use
INFO: Reducing dbase  2.12741E-02 1.38095E+00 1.81035E-02
:TRUST:  Step 3.40E-02  Charge 7.50E-02 (e) CTO  2.50E-01 (e) PW  3.50E-01 (e)
:DIRM :  MEMORY  0/ 8 SCALE   1.000
Performing Pseudo Compensation
Final Pseudo Compensation Rescaling     9.98980E-01
Final Pseudo Compensation Rescaling     9.96190E-01
:MIX  :   PRATT  REGULARIZATION:  1.00E-04 GREED: 0.02263                  
     
       CHARGES OF MIXED CHARGE DENSITY
:CTO   : INTERSTITIAL     UP =     5.388223 DN =     2.267408 TOT =     7.655631
:CPC   : PW Pseudocharge  UP =    17.440285 DN =     9.782349 TOT =    27.222633
:CTO001: CHARGE SPHERE  1 UP =    14.053376 DN =    11.167800 TOT =    25.221176
:CTO002: CHARGE SPHERE  2 UP =    14.053376 DN =    11.167800 TOT =    25.221176
:CTO003: CHARGE SPHERE  3 UP =    23.078360 DN =    20.786562 TOT =    43.864922
:CTO004: CHARGE SPHERE  4 UP =    14.053370 DN =    11.167809 TOT =    25.221179
:CTO005: CHARGE SPHERE  5 UP =    14.053370 DN =    11.167809 TOT =    25.221179
:CTO006: CHARGE SPHERE  6 UP =    23.078352 DN =    20.786556 TOT =    43.864908

       SPIN MAGNETIC MOMENTS OF MIXED CHARGE DENSITY
:MMINT:  MAGNETIC MOMENT IN INTERSTITIAL  =    3.12081
:MMI001: MAGNETIC MOMENT IN SPHERE   1    =    2.88558
:MMI002: MAGNETIC MOMENT IN SPHERE   2    =    2.88558
:MMI003: MAGNETIC MOMENT IN SPHERE   3    =    2.29180
:MMI004: MAGNETIC MOMENT IN SPHERE   4    =    2.88556
:MMI005: MAGNETIC MOMENT IN SPHERE   5    =    2.88556
:MMI006: MAGNETIC MOMENT IN SPHERE   6    =    2.29180
:MMTOT:  SPIN MAGNETIC MOMENT IN CELL     =   23.83028

:NEC03: NUCLEAR AND ELECTRONIC CHARGE    284.00000   284.00000

PW CHANGE     H    K    L             Current                    Change               Residue
:PUP001:      0    0    0  3.18771268E-02 0.00000000E+00 -1.061E-02  0.000E+00 -1.730E-02  0.000E+00
:PUP004:      0   -2    0 -9.31605573E-03-2.73250169E-18  4.920E-03 -2.733E-18  1.022E-02  0.000E+00
:PUP005:      0    0    2  4.20838543E-07-1.43607127E-19 -2.590E-07 -1.436E-19 -2.694E-07  0.000E+00
:PUP006:      0    0   -2  4.20838543E-07 1.43607127E-19 -2.590E-07  1.436E-19 -2.694E-07  0.000E+00
:PUP007:     -1    0    0 -8.84432261E-07-9.28852367E-19  1.903E-06 -9.289E-19  2.696E-06  0.000E+00
:PUP008:      0   -2    2 -8.79931194E-07 9.28802350E-19  1.908E-06  9.288E-19  2.895E-06  0.000E+00
:PUP009:      0   -2   -2 -8.79931194E-07-9.29353382E-19  1.908E-06 -9.294E-19  2.895E-06  0.000E+00
:PUP016:     -1   -2    0  8.05376654E-07 4.33676335E-19 -6.673E-07  4.337E-19 -9.410E-07  0.000E+00
:PUP017:     -1    0    2 -2.95267675E-03 4.33197499E-19  3.669E-03  4.332E-19  5.808E-03  0.000E+00
:PUP018:     -1    0   -2 -2.95267675E-03-8.66434446E-19  3.669E-03 -8.664E-19  5.808E-03  0.000E+00
:PUP019:     -1   -2    2  6.32577135E-03 7.46743825E-19 -2.289E-02  7.467E-19 -2.946E-02  0.000E+00
:PUP020:     -1   -2   -2  6.32577135E-03 8.91107880E-18 -2.289E-02  8.911E-18 -2.946E-02  0.000E+00
  
:PDN001:      0    0    0  1.68259635E-02 0.00000000E+00 -3.919E-03  0.000E+00  2.253E-04  0.000E+00
:PDN004:      0   -2    0 -4.76995588E-03-1.28610347E-18  3.526E-03 -1.286E-18  4.733E-03  0.000E+00
:PDN005:      0    0    2 -8.61720264E-08-1.04800801E-19 -6.659E-07 -1.048E-19 -1.646E-06  0.000E+00
:PDN006:      0    0   -2 -8.61720264E-08 1.04800801E-19 -6.659E-07  1.048E-19 -1.646E-06  0.000E+00
:PDN007:     -1    0    0 -1.09894538E-06-3.90303105E-19  8.975E-07 -3.903E-19  1.026E-06  0.000E+00
:PDN008:      0   -2    2 -1.08961361E-06 3.90187442E-19  9.068E-07  3.902E-19  1.438E-06  0.000E+00
:PDN009:      0   -2   -2 -1.08961361E-06-3.90632805E-19  9.068E-07 -3.906E-19  1.438E-06  0.000E+00
:PDN016:     -1   -2    0 -3.26610595E-07 2.92155331E-19 -1.409E-06  2.922E-19 -1.412E-06  0.000E+00
:PDN017:     -1    0    2 -2.01922628E-03 2.91734829E-19  2.457E-03  2.917E-19  3.306E-03  0.000E+00
:PDN018:     -1    0   -2 -2.01922628E-03-5.83553942E-19  2.457E-03 -5.836E-19  3.306E-03  0.000E+00
:PDN019:     -1   -2    2  5.57298303E-03 4.81586125E-19 -1.048E-02  4.816E-19 -1.683E-02  0.000E+00
:PDN020:     -1   -2   -2  5.57298303E-03 4.19314190E-18 -1.048E-02  4.193E-18 -1.683E-02  0.000E+00

:ENE  : *WARNING** TOTAL ENERGY IN Ry =       -48464.31891519

       TOTAL FORCE IN mRy/a.u. = |F|     Fx             Fy             Fz     with/without FOR in case.in2
:FOR001:   1.ATOM          0.000          0.000          0.000         -0.000 partial forces
:FOR002:   2.ATOM          0.000          0.000          0.000          0.000 partial forces
:FOR003:   3.ATOM          0.000          0.000          0.000          0.000 partial forces
:FOR004:   4.ATOM          0.000          0.000          0.000          0.000 partial forces
:FOR005:   5.ATOM          0.000          0.000          0.000          0.000 partial forces
:FOR006:   6.ATOM          0.000         -0.000         -0.000          0.000 partial forces
       TOTAL FORCE WITH RESPECT TO GLOBAL CARTESIAN COORDINATES:
:FCA001:   1.ATOM                         0.000          0.000         -0.000 partial forces
:FCA002:   2.ATOM                         0.000          0.000          0.000 partial forces
:FCA003:   3.ATOM                         0.000          0.000          0.000 partial forces
:FCA004:   4.ATOM                         0.000          0.000          0.000 partial forces
:FCA005:   5.ATOM                         0.000          0.000          0.000 partial forces
:FCA006:   6.ATOM                         0.000         -0.000         -0.000 partial forces
       TOTAL FORCE WITH RESPECT TO THE GLOBAL COORDINATE SYSTEM:
:FGL001:   1.ATOM                 0.000000000     0.000000000    -0.000000006 partial forces
:FGL002:   2.ATOM                 0.000000000     0.000000000     0.000000004 partial forces
:FGL003:   3.ATOM                 0.000000000     0.000000012     0.000000002 partial forces
:FGL004:   4.ATOM                 0.000000000     0.000000000     0.000000000 partial forces
:FGL005:   5.ATOM                 0.000000000     0.000000000     0.000000000 partial forces
:FGL006:   6.ATOM                 0.000000000    -0.000000002    -0.000000002 partial forces
 Flat Integration
 New Mode for Coulomb Integral
 Consistent 3/8+Simpson combinations
 Extension of core to zero
 LDM version in phi
 Fifth-order quadrature in outwin


            ---------
:ITE002:  2. ITERATION
            ---------

:NATO :    6 INDEPENDENT AND    8 TOTAL ATOMS IN UNITCELL
       SUBSTANCE: FeRh                                                        

       LATTICE                      = CYZ 
:POT  : POTENTIAL OPTION EX_PBE EC_PBE VX_PBE VC_PBE
:LAT  : LATTICE CONSTANTS=  5.63611 15.94133 15.94133    1.571    1.571    1.571
:VOL  : UNIT CELL VOLUME =     716.14069
       MODE OF CALCULATION IS       = RELA
       SPINPOLARIZED CALCULATION
:IFFT  : FFT-parameters:   48  128  128 Factor: 2.00


   CONVERGENCE PARAMETER FOR PSEUDOCHARGE: NCON=  9
   MAXIMAL VALUE OF RMT(JATOM)*ABSK(NKK) : RK  =29.11372


:VKCOUL :  VK-COUL convergence: 0.143E-08
       ATOMNUMBER=  1 Fe1        VCOUL-ZERO =  0.63412E+00
:EFG001:                        EFG         =     0.03182   *10**21  V / m**2
                               V20  TOT/SRF=    -0.01800    -0.01459
                               V22  TOT/SRF=    -0.02143    -0.00904
                               V22M TOT/SRF=     0.00000     0.00000
                               V21  TOT/SRF=     0.00000     0.00000
                               V21M TOT/SRF=     0.00000     0.00000

             -0.01104    0.00000    0.00000       -0.01104    0.00000    0.00000
              0.00000    0.03182    0.00000        0.00000    0.03182    0.00000
              0.00000    0.00000   -0.02078        0.00000    0.00000   -0.02078

         MAIN DIRECTIONS OF THE EFG   1.0000  0.0000  0.0000
                                      0.0000  1.0000  0.0000
                                      0.0000  0.0000  1.0000
:ANG001:  ANGLE WITH OLD X-AXIS =         0.0

:ETA001:                         ASYMM. ETA =     0.30614


       ATOMNUMBER=  2 Fe2        VCOUL-ZERO =  0.63412E+00
:EFG002:                        EFG         =     0.03182   *10**21  V / m**2
                               V20  TOT/SRF=    -0.01800    -0.01459
                               V22  TOT/SRF=    -0.02143    -0.00904
                               V22M TOT/SRF=     0.00000     0.00000
                               V21  TOT/SRF=     0.00000     0.00000
                               V21M TOT/SRF=     0.00000     0.00000

             -0.01104    0.00000    0.00000       -0.01104    0.00000    0.00000
              0.00000    0.03182    0.00000        0.00000    0.03182    0.00000
              0.00000    0.00000   -0.02078        0.00000    0.00000   -0.02078

         MAIN DIRECTIONS OF THE EFG   1.0000  0.0000  0.0000
                                      0.0000  1.0000  0.0000
                                      0.0000  0.0000  1.0000
:ANG002:  ANGLE WITH OLD X-AXIS =         0.0

:ETA002:                         ASYMM. ETA =     0.30614


       ATOMNUMBER=  3 Rh1        VCOUL-ZERO =  0.59479E+00
:EFG003:                        EFG         =     0.02369   *10**21  V / m**2
                               V20  TOT/SRF=     0.02051     0.00056
                               V22  TOT/SRF=    -0.00083    -0.01712
                               V22M TOT/SRF=     0.00000     0.00000
                               V21  TOT/SRF=     0.00000     0.00000
                               V21M TOT/SRF=     0.00000     0.00000

             -0.01268    0.00000    0.00000       -0.01268    0.00000    0.00000
              0.00000   -0.01101    0.00000        0.00000   -0.01101    0.00000
              0.00000    0.00000    0.02369        0.00000    0.00000    0.02369

         MAIN DIRECTIONS OF THE EFG   1.0000  0.0000  0.0000
                                     -0.0000  1.0000  0.0000
                                      0.0000  0.0000  1.0000
:ANG003:  ANGLE WITH OLD X-AXIS =         0.0

:ETA003:                         ASYMM. ETA =     0.07033


       ATOMNUMBER=  4 Fe3        VCOUL-ZERO =  0.63412E+00
:EFG004:                        EFG         =     0.03159   *10**21  V / m**2
                               V20  TOT/SRF=    -0.01795    -0.01458
                               V22  TOT/SRF=    -0.02123    -0.00904
                               V22M TOT/SRF=     0.00000     0.00000
                               V21  TOT/SRF=     0.00000     0.00000
                               V21M TOT/SRF=     0.00000     0.00000

             -0.01087    0.00000    0.00000       -0.01087    0.00000    0.00000
              0.00000    0.03159    0.00000        0.00000    0.03159    0.00000
              0.00000    0.00000   -0.02072        0.00000    0.00000   -0.02072

         MAIN DIRECTIONS OF THE EFG   1.0000  0.0000  0.0000
                                      0.0000  1.0000  0.0000
                                      0.0000  0.0000  1.0000
:ANG004:  ANGLE WITH OLD X-AXIS =         0.0

:ETA004:                         ASYMM. ETA =     0.31198


       ATOMNUMBER=  5 Fe4        VCOUL-ZERO =  0.63412E+00
:EFG005:                        EFG         =     0.03159   *10**21  V / m**2
                               V20  TOT/SRF=    -0.01795    -0.01458
                               V22  TOT/SRF=    -0.02123    -0.00904
                               V22M TOT/SRF=     0.00000     0.00000
                               V21  TOT/SRF=     0.00000     0.00000
                               V21M TOT/SRF=     0.00000     0.00000

             -0.01087    0.00000    0.00000       -0.01087    0.00000    0.00000
              0.00000    0.03159    0.00000        0.00000    0.03159    0.00000
              0.00000    0.00000   -0.02072        0.00000    0.00000   -0.02072

         MAIN DIRECTIONS OF THE EFG   1.0000  0.0000  0.0000
                                      0.0000  1.0000  0.0000
                                      0.0000  0.0000  1.0000
:ANG005:  ANGLE WITH OLD X-AXIS =         0.0

:ETA005:                         ASYMM. ETA =     0.31198


       ATOMNUMBER=  6 Rh3        VCOUL-ZERO =  0.59478E+00
:EFG006:                        EFG         =     0.02383   *10**21  V / m**2
                               V20  TOT/SRF=     0.02064     0.00056
                               V22  TOT/SRF=    -0.00080    -0.01712
                               V22M TOT/SRF=    -0.00000     0.00000
                               V21  TOT/SRF=     0.00000     0.00000
                               V21M TOT/SRF=     0.00000     0.00000

             -0.01272   -0.00000    0.00000       -0.01272    0.00000    0.00000
             -0.00000   -0.01112    0.00000        0.00000   -0.01112    0.00000
              0.00000    0.00000    0.02383        0.00000    0.00000    0.02383

         MAIN DIRECTIONS OF THE EFG   1.0000 -0.0000  0.0000
                                      0.0000  1.0000  0.0000
                                      0.0000  0.0000  1.0000
:ANG006:  ANGLE WITH OLD X-AXIS =         0.0

:ETA006:                         ASYMM. ETA =     0.06714


     HELLMANN-FEYNMAN-FORCE IN mRy/a.u. = |F|  Fx       Fy             Fz
:FHF001:   1.ATOM      0.000001006898      0.000000000000      0.000000000000     -0.000001006898

     HELLMANN-FEYNMAN-FORCE IN mRy/a.u. = |F|  Fx       Fy             Fz
:FHF002:   2.ATOM      0.000001006654      0.000000000000      0.000000000000      0.000001006654

     HELLMANN-FEYNMAN-FORCE IN mRy/a.u. = |F|  Fx       Fy             Fz
:FHF003:   3.ATOM      0.000001728596      0.000001728581     -0.000000007404      0.000000000000

     HELLMANN-FEYNMAN-FORCE IN mRy/a.u. = |F|  Fx       Fy             Fz
:FHF004:   4.ATOM      0.000009250956      0.000000000000      0.000000000000      0.000009250956

     HELLMANN-FEYNMAN-FORCE IN mRy/a.u. = |F|  Fx       Fy             Fz
:FHF005:   5.ATOM      0.000009254493      0.000000000000      0.000000000000     -0.000009254493

     HELLMANN-FEYNMAN-FORCE IN mRy/a.u. = |F|  Fx       Fy             Fz
:FHF006:   6.ATOM      0.000015997894     -0.000015997894     -0.000000004190      0.000000000000

:FIT001: LUSE= 13 SIGMA OF V-XC FIT FOR ATOM  1  0.5607308E-02
:FIT001: LUSE= 13 SIGMA OF V-XC FIT FOR ATOM  1  0.2005145E-02
:FIT002: LUSE= 13 SIGMA OF V-XC FIT FOR ATOM  2  0.5607308E-02
:FIT002: LUSE= 13 SIGMA OF V-XC FIT FOR ATOM  2  0.2005145E-02
:FIT003: LUSE= 13 SIGMA OF V-XC FIT FOR ATOM  3  0.1609129E-02
:FIT003: LUSE= 13 SIGMA OF V-XC FIT FOR ATOM  3  0.1552142E-02
:FIT004: LUSE= 13 SIGMA OF V-XC FIT FOR ATOM  4  0.5087495E-02
:FIT004: LUSE= 13 SIGMA OF V-XC FIT FOR ATOM  4  0.1340920E-02
:FIT005: LUSE= 13 SIGMA OF V-XC FIT FOR ATOM  5  0.5087495E-02
:FIT005: LUSE= 13 SIGMA OF V-XC FIT FOR ATOM  5  0.1340920E-02
:FIT006: LUSE= 13 SIGMA OF V-XC FIT FOR ATOM  6  0.1663296E-02
:FIT006: LUSE= 13 SIGMA OF V-XC FIT FOR ATOM  6  0.1579467E-02
:DEN  : DENSITY INTEGRAL  =        -19766.63938536   (Ry)
       ELS_POTENTIAL_AT Z=0 and Z=0.5:  -0.72499  -0.72499
       ELS_POTENTIAL_AT Y=0 and Y=0.5:  -0.42349  -0.42349
:VZERO:v0,v0c,v0x  -1.60574  -0.72499  -0.88075 v5,v5c,v5x  -1.60574  -0.72499  -0.88075
:VZERY:v0,v0c,v0x  -1.23468  -0.42349  -0.81119 v5,v5c,v5x  -1.23468  -0.42349  -0.81119
:VZERX:v0,v0c,v0x  -1.12455  -0.28206  -0.84250 v5,v5c,v5x  -1.12462  -0.28212  -0.84251
:LMAX-WF:   10   Non-Spherical LMAX:   4

          ATOMIC SPHERE DEPENDENT PARAMETERS FOR ATOM  Fe1       
:e__0001: OVERALL ENERGY PARAMETER IS    0.5000
          OVERALL BASIS SET ON ATOM IS LAPW
:E1_0001: E( 1)=    0.5000
             APW+lo
:E1_0001: E( 1)=   -3.2022   E(BOTTOM)=   -3.235   E(TOP)=   -3.170  1  2   174
             LOCAL ORBITAL
:E2_0001: E( 2)=    0.5813   E(BOTTOM)=    0.340   E(TOP)=    0.823  0  1   127
             APW+lo
:E0_0001: E( 0)=    0.5000
             APW+lo

          ATOMIC SPHERE DEPENDENT PARAMETERS FOR ATOM  Fe2       
:e__0002: OVERALL ENERGY PARAMETER IS    0.5000
          OVERALL BASIS SET ON ATOM IS LAPW
:E1_0002: E( 1)=    0.5000
             APW+lo
:E1_0002: E( 1)=   -3.2022   E(BOTTOM)=   -3.235   E(TOP)=   -3.170  1  2   174
             LOCAL ORBITAL
:E2_0002: E( 2)=    0.5813   E(BOTTOM)=    0.340   E(TOP)=    0.823  0  1   127
             APW+lo
:E0_0002: E( 0)=    0.5000
             APW+lo

          ATOMIC SPHERE DEPENDENT PARAMETERS FOR ATOM  Rh1       
:e__0003: OVERALL ENERGY PARAMETER IS    0.5000
          OVERALL BASIS SET ON ATOM IS LAPW
:E1_0003: E( 1)=    0.5000
             APW+lo
:E1_0003: E( 1)=   -2.6696   E(BOTTOM)=   -2.770   E(TOP)=   -2.569  2  3   165
             LOCAL ORBITAL
:E2_0003: E( 2)=    0.5000   E(BOTTOM)=    0.121   E(TOP)= -200.000  1 -1    93
             APW+lo
:E0_0003: E( 0)=    0.5000
             APW+lo

          ATOMIC SPHERE DEPENDENT PARAMETERS FOR ATOM  Fe3       
:e__0004: OVERALL ENERGY PARAMETER IS    0.5000
          OVERALL BASIS SET ON ATOM IS LAPW
:E1_0004: E( 1)=    0.5000
             APW+lo
:E1_0004: E( 1)=   -3.2022   E(BOTTOM)=   -3.235   E(TOP)=   -3.170  1  2   171
             LOCAL ORBITAL
:E2_0004: E( 2)=    0.5813   E(BOTTOM)=    0.340   E(TOP)=    0.823  0  1   125
             APW+lo
:E0_0004: E( 0)=    0.5000
             APW+lo

          ATOMIC SPHERE DEPENDENT PARAMETERS FOR ATOM  Fe4       
:e__0005: OVERALL ENERGY PARAMETER IS    0.5000
          OVERALL BASIS SET ON ATOM IS LAPW
:E1_0005: E( 1)=    0.5000
             APW+lo
:E1_0005: E( 1)=   -3.2022   E(BOTTOM)=   -3.235   E(TOP)=   -3.170  1  2   171
             LOCAL ORBITAL
:E2_0005: E( 2)=    0.5813   E(BOTTOM)=    0.340   E(TOP)=    0.823  0  1   125
             APW+lo
:E0_0005: E( 0)=    0.5000
             APW+lo

          ATOMIC SPHERE DEPENDENT PARAMETERS FOR ATOM  Rh3       
:e__0006: OVERALL ENERGY PARAMETER IS    0.5000
          OVERALL BASIS SET ON ATOM IS LAPW
:E1_0006: E( 1)=    0.5000
             APW+lo
:E1_0006: E( 1)=   -2.6696   E(BOTTOM)=   -2.770   E(TOP)=   -2.569  2  3   167
             LOCAL ORBITAL
:E2_0006: E( 2)=    0.5000   E(BOTTOM)=    0.121   E(TOP)= -200.000  1 -1    95
             APW+lo
:E0_0006: E( 0)=    0.5000
             APW+lo

       K=   0.00000   0.00000   0.00000            1
:RKM  : MATRIX SIZE   397LOs:  96  RKM= 6.91  WEIGHT= 1.00  PGR:    
       EIGENVALUES ARE:
:EIG00001:      -3.2038154   -3.1976926   -3.1975455   -3.1957616   -3.1957474
:EIG00006:      -3.1950434   -3.1950306   -3.1947040   -3.1936537   -3.1936410
:EIG00011:      -3.1902324   -3.1864467   -2.6788402   -2.6557796   -2.6536299
:EIG00016:      -2.6503670   -2.6503625   -2.6492209   -2.6492160   -2.6440475
:EIG00021:      -2.6435514   -2.6435468   -2.6318566   -2.6213359    0.0374795
:EIG00026:       0.2484655    0.2792791    0.2882188    0.2882258    0.3047964
:EIG00031:       0.3314316    0.3314368    0.3455601    0.4031513    0.4304188
:EIG00036:       0.4601927    0.4601942    0.5073873    0.5073953    0.5375586
:EIG00041:       0.5413910    0.5457894    0.5457979    0.5536031    0.5660811
:EIG00046:       0.5660860    0.5714800    0.5714825    0.5961448    0.5961597
 
:EIG00051:       0.6448892    0.6448993    0.6516829    0.6516872    0.6715809
:EIG00056:       0.6719885    0.6746950    0.6751761    0.6772614    0.6846886
:EIG00061:       0.7004415    0.7122721    0.7435076    0.7555948    0.7555973
:EIG00066:       0.7688898    0.7690943    0.7690988    0.7706898    0.8024081
:EIG00071:       0.8529946    1.2712906    1.2759685    1.2879922    1.2943167
:EIG00076:       1.3204277    1.7507663    1.7716904    1.7717030    1.7858243
:EIG00081:       1.8348806    1.8348923    1.8849569    1.8849644    1.9207364
:EIG00086:       1.9207385    1.9482764    1.9540247    1.9540298    1.9747934
:EIG00091:       1.9838378    1.9994714    1.9994879    2.0042443    2.0316681
:EIG00096:       2.0316720    2.0563726    2.1108201    2.1108309    2.1135872
 
:EIG00101:       2.1161423    2.1297472
       ********************************************************

:KPT   :      NUMBER OF K-POINTS:   310
:LMAX-WF:   10   Non-Spherical LMAX:   4

          ATOMIC SPHERE DEPENDENT PARAMETERS FOR ATOM  Fe1       
:e__0001: OVERALL ENERGY PARAMETER IS    0.5000
          OVERALL BASIS SET ON ATOM IS LAPW
:E1_0001: E( 1)=    0.5000
             APW+lo
:E1_0001: E( 1)=   -3.0134   E(BOTTOM)=   -3.047   E(TOP)=   -2.980  1  2   188
             LOCAL ORBITAL
:E2_0001: E( 2)=    0.5068   E(BOTTOM)=    0.507   E(TOP)= -200.000  0 -1    76
             APW+lo
:E0_0001: E( 0)=    0.5000
             APW+lo

          ATOMIC SPHERE DEPENDENT PARAMETERS FOR ATOM  Fe2       
:e__0002: OVERALL ENERGY PARAMETER IS    0.5000
          OVERALL BASIS SET ON ATOM IS LAPW
:E1_0002: E( 1)=    0.5000
             APW+lo
:E1_0002: E( 1)=   -3.0134   E(BOTTOM)=   -3.047   E(TOP)=   -2.980  1  2   188
             LOCAL ORBITAL
:E2_0002: E( 2)=    0.5068   E(BOTTOM)=    0.507   E(TOP)= -200.000  0 -1    76
             APW+lo
:E0_0002: E( 0)=    0.5000
             APW+lo

          ATOMIC SPHERE DEPENDENT PARAMETERS FOR ATOM  Rh1       
:e__0003: OVERALL ENERGY PARAMETER IS    0.5000
          OVERALL BASIS SET ON ATOM IS LAPW
:E1_0003: E( 1)=    0.5000
             APW+lo
:E1_0003: E( 1)=   -2.5679   E(BOTTOM)=   -2.667   E(TOP)=   -2.469  2  3   173
             LOCAL ORBITAL
:E2_0003: E( 2)=    0.5000   E(BOTTOM)=    0.240   E(TOP)= -200.000  1 -1    85
             APW+lo
:E0_0003: E( 0)=    0.5000
             APW+lo

          ATOMIC SPHERE DEPENDENT PARAMETERS FOR ATOM  Fe3       
:e__0004: OVERALL ENERGY PARAMETER IS    0.5000
          OVERALL BASIS SET ON ATOM IS LAPW
:E1_0004: E( 1)=    0.5000
             APW+lo
:E1_0004: E( 1)=   -3.0134   E(BOTTOM)=   -3.047   E(TOP)=   -2.980  1  2   191
             LOCAL ORBITAL
:E2_0004: E( 2)=    0.5068   E(BOTTOM)=    0.507   E(TOP)= -200.000  0 -1    74
             APW+lo
:E0_0004: E( 0)=    0.5000
             APW+lo

          ATOMIC SPHERE DEPENDENT PARAMETERS FOR ATOM  Fe4       
:e__0005: OVERALL ENERGY PARAMETER IS    0.5000
          OVERALL BASIS SET ON ATOM IS LAPW
:E1_0005: E( 1)=    0.5000
             APW+lo
:E1_0005: E( 1)=   -3.0134   E(BOTTOM)=   -3.047   E(TOP)=   -2.980  1  2   191
             LOCAL ORBITAL
:E2_0005: E( 2)=    0.5068   E(BOTTOM)=    0.507   E(TOP)= -200.000  0 -1    74
             APW+lo
:E0_0005: E( 0)=    0.5000
             APW+lo

          ATOMIC SPHERE DEPENDENT PARAMETERS FOR ATOM  Rh3       
:e__0006: OVERALL ENERGY PARAMETER IS    0.5000
          OVERALL BASIS SET ON ATOM IS LAPW
:E1_0006: E( 1)=    0.5000
             APW+lo
:E1_0006: E( 1)=   -2.5679   E(BOTTOM)=   -2.667   E(TOP)=   -2.469  2  3   172
             LOCAL ORBITAL
:E2_0006: E( 2)=    0.5000   E(BOTTOM)=    0.240   E(TOP)= -200.000  1 -1    82
             APW+lo
:E0_0006: E( 0)=    0.5000
             APW+lo

       K=   0.00000   0.00000   0.00000            1
:RKM  : MATRIX SIZE   397LOs:  96  RKM= 6.91  WEIGHT= 1.00  PGR:    
       EIGENVALUES ARE:
:EIG00001:      -3.0153109   -3.0086781   -3.0084165   -3.0063300   -3.0063185
:EIG00006:      -3.0062371   -3.0062250   -3.0052654   -3.0046688   -3.0046576
:EIG00011:      -3.0010888   -2.9972720   -2.5758265   -2.5538366   -2.5520390
:EIG00016:      -2.5483766   -2.5483724   -2.5480373   -2.5480336   -2.5429534
:EIG00021:      -2.5421297   -2.5421260   -2.5307263   -2.5203950    0.1906416
:EIG00026:       0.3921592    0.4224724    0.4337373    0.4337647    0.4491242
:EIG00031:       0.4853475    0.4853799    0.4964102    0.5338965    0.5738419
:EIG00036:       0.6039332    0.6039341    0.6670864    0.6671016    0.6695254
:EIG00041:       0.6695317    0.6829341    0.6939666    0.6983306    0.6983425
:EIG00046:       0.7037445    0.7037475    0.7241218    0.7747480    0.7747541
 
:EIG00051:       0.8136993    0.8158383    0.8158428    0.8190615    0.8190707
:EIG00056:       0.8195467    0.8260973    0.8345210    0.8352523    0.8528887
:EIG00061:       0.8628571    0.8682796    0.9113668    0.9113785    0.9266587
:EIG00066:       0.9266747    0.9271867    0.9291194    0.9292477    0.9586003
:EIG00071:       0.9696145    1.4272631    1.4281121    1.4453259    1.4470829
:EIG00076:       1.4740722    1.9118909    1.9396715    1.9547688    1.9548003
:EIG00081:       2.0033454    2.0033784    2.0760788    2.0760974    2.0764428
:EIG00086:       2.0764507    2.1228523    2.1228618    2.1240816    2.1510691
:EIG00091:       2.1528677    2.1749205    2.1749498    2.1912025
       ********************************************************

:KPT   :      NUMBER OF K-POINTS:   310
:GAP (global)   :    0.0    Ry =     0.0   eV (metal)
:GAP (this spin):    0.0    Ry =     0.0   eV (metal)
         Bandranges (emin - emax) and occupancy:
:BAN00060:  60    0.656705    0.722068  1.00000000
:BAN00061:  61    0.676746    0.738947  1.00000000
:BAN00062:  62    0.684321    0.751004  1.00000000
:BAN00063:  63    0.685221    0.754949  1.00000000
:BAN00064:  64    0.700832    0.769046  1.00000000
:BAN00065:  65    0.719176    0.860042  0.96003394
:BAN00066:  66    0.736872    0.860044  0.83658943
:BAN00067:  67    0.742099    0.950241  0.41983798
:BAN00068:  68    0.742100    0.950241  0.07429962
:BAN00069:  69    0.769332    1.147028  0.00425048
:BAN00070:  70    0.779840    1.191634  0.00012246
:BAN00071:  71    0.835814    1.237513  0.00000000
:BAN00072:  72    0.982113    1.272156  0.00000000
:BAN00073:  73    1.160504    1.404226  0.00000000
:BAN00074:  74    1.234949    1.438504  0.00000000
:BAN00075:  75    1.258475    1.476990  0.00000000
        Energy to separate low and high energystates:   -0.01252


:NOE  : NUMBER OF ELECTRONS          =  116.000

:FER  : F E R M I - ENERGY(TETRAH.M.)=   0.7865688422
:GMA  : POTENTIAL AND CHARGE CUT-OFF  12.00 Ry**.5

:POS001: ATOM   -1 X,Y,Z = 0.00000 0.00000 0.00000  MULT= 1  ZZ= 26.000  Fe1       

       LMMAX 16
       LM=   0 0  1 0  2 0  2 2  3 0  3 2  4 0  4 2  4 4  5 0  5 2  5 4  6 0  6 2  6 4  6 6

:CHA001: TOTAL VALENCE CHARGE INSIDE SPHERE   1 =   7.9515    (RMT=  2.4300 )
:PCS001: PARTIAL CHARGES SPHERE =  1 S,P,D,F,PX,PY,PZ,D-Z2,D-X2Y2,D-XY,D-XZ,D-YZ 
:QTL001: 0.2444 3.2823 4.3885 0.0267 1.0933 1.0994 1.0896 0.8744 0.8928 0.8515 0.8677 0.9020
        Q-s-low E-s-low   Q-p-low E-p-low   Q-d-low E-d-low   Q-f-low E-f-low
:EPL001:  0.0004 -2.7525    2.9947 -3.1951    0.0009 -2.7580    0.0004 -2.7619
        Q-s-hi  E-s-hi    Q-p-hi  E-p-hi    Q-d-hi  E-d-hi    Q-f-hi  E-f-hi 
:EPH001:  0.2440  0.3045    0.2876  0.4648    4.3876  0.6002    0.0263  0.5611

                      VXX         VYY         VZZ       UP TO R
:VZZ001:             0.43285    -0.57919     0.14634       2.430

:POS002: ATOM   -2 X,Y,Z = 0.00000 0.00000 0.50000  MULT= 1  ZZ= 26.000  Fe2       

       LMMAX 16
       LM=   0 0  1 0  2 0  2 2  3 0  3 2  4 0  4 2  4 4  5 0  5 2  5 4  6 0  6 2  6 4  6 6

:CHA002: TOTAL VALENCE CHARGE INSIDE SPHERE   2 =   7.9515    (RMT=  2.4300 )
:PCS002: PARTIAL CHARGES SPHERE =  2 S,P,D,F,PX,PY,PZ,D-Z2,D-X2Y2,D-XY,D-XZ,D-YZ 
:QTL002: 0.2444 3.2823 4.3885 0.0267 1.0933 1.0994 1.0896 0.8744 0.8928 0.8515 0.8677 0.9020
        Q-s-low E-s-low   Q-p-low E-p-low   Q-d-low E-d-low   Q-f-low E-f-low
:EPL002:  0.0004 -2.7525    2.9947 -3.1951    0.0009 -2.7580    0.0004 -2.7619
        Q-s-hi  E-s-hi    Q-p-hi  E-p-hi    Q-d-hi  E-d-hi    Q-f-hi  E-f-hi 
:EPH002:  0.2440  0.3045    0.2876  0.4648    4.3876  0.6002    0.0263  0.5611

                      VXX         VYY         VZZ       UP TO R
:VZZ002:             0.43285    -0.57919     0.14634       2.430

:POS003: ATOM   -3 X,Y,Z = 0.00000 0.25000 0.25000  MULT= 2  ZZ= 45.000  Rh1       

       LMMAX 28
       LM=   0 0  1 1 -1 1  2 0  2 2 -2 2  3 1 -3 1  3 3 -3 3  4 0  4 2 -4 2  4 4 -4 4  5 1 -5 1
         5 3 -5 3  5 5 -5 5  6 0  6 2 -6 2  6 4 -6 4  6 6 -6 6

:CHA003: TOTAL VALENCE CHARGE INSIDE SPHERE   3 =   7.3073    (RMT=  2.4300 )
:PCS003: PARTIAL CHARGES SPHERE =  3 S,P,D,F,PX,PY,PZ,D-Z2,D-X2Y2,D-XY,D-XZ,D-YZ 
:QTL003: 0.2031 3.1977 3.8640 0.0325 1.0612 1.0702 1.0663 0.8076 0.7498 0.8140 0.7694 0.7232
        Q-s-low E-s-low   Q-p-low E-p-low   Q-d-low E-d-low   Q-f-low E-f-low
:EPL003:  0.0004 -2.7569    2.9787 -2.6491    0.0009 -2.7601    0.0004 -2.7670
        Q-s-hi  E-s-hi    Q-p-hi  E-p-hi    Q-d-hi  E-d-hi    Q-f-hi  E-f-hi 
:EPH003:  0.2027  0.3235    0.2190  0.4824    3.8631  0.5424    0.0321  0.5614

                      QXX         QXY         QYY         QZZ       UP TO R
:VZZ003:             0.16224     0.00000    -0.42136     0.25912       2.430

:POS004: ATOM   -4 X,Y,Z = 0.50000 0.00000 0.25000  MULT= 1  ZZ= 26.000  Fe3       

       LMMAX 16
       LM=   0 0  1 0  2 0  2 2  3 0  3 2  4 0  4 2  4 4  5 0  5 2  5 4  6 0  6 2  6 4  6 6

:CHA004: TOTAL VALENCE CHARGE INSIDE SPHERE   4 =   7.9512    (RMT=  2.4300 )
:PCS004: PARTIAL CHARGES SPHERE =  4 S,P,D,F,PX,PY,PZ,D-Z2,D-X2Y2,D-XY,D-XZ,D-YZ 
:QTL004: 0.2443 3.2823 4.3883 0.0267 1.0933 1.0994 1.0896 0.8744 0.8928 0.8513 0.8678 0.9021
        Q-s-low E-s-low   Q-p-low E-p-low   Q-d-low E-d-low   Q-f-low E-f-low
:EPL004:  0.0004 -2.7525    2.9947 -3.1951    0.0009 -2.7580    0.0004 -2.7619
        Q-s-hi  E-s-hi    Q-p-hi  E-p-hi    Q-d-hi  E-d-hi    Q-f-hi  E-f-hi 
:EPH004:  0.2439  0.3044    0.2876  0.4648    4.3874  0.6002    0.0263  0.5611

                      VXX         VYY         VZZ       UP TO R
:VZZ004:             0.43846    -0.57550     0.13704       2.430

:POS005: ATOM   -5 X,Y,Z = 0.50000 0.00000 0.75000  MULT= 1  ZZ= 26.000  Fe4       

       LMMAX 16
       LM=   0 0  1 0  2 0  2 2  3 0  3 2  4 0  4 2  4 4  5 0  5 2  5 4  6 0  6 2  6 4  6 6

:CHA005: TOTAL VALENCE CHARGE INSIDE SPHERE   5 =   7.9512    (RMT=  2.4300 )
:PCS005: PARTIAL CHARGES SPHERE =  5 S,P,D,F,PX,PY,PZ,D-Z2,D-X2Y2,D-XY,D-XZ,D-YZ 
:QTL005: 0.2443 3.2823 4.3883 0.0267 1.0933 1.0994 1.0896 0.8744 0.8928 0.8513 0.8678 0.9021
        Q-s-low E-s-low   Q-p-low E-p-low   Q-d-low E-d-low   Q-f-low E-f-low
:EPL005:  0.0004 -2.7525    2.9947 -3.1951    0.0009 -2.7580    0.0004 -2.7619
        Q-s-hi  E-s-hi    Q-p-hi  E-p-hi    Q-d-hi  E-d-hi    Q-f-hi  E-f-hi 
:EPH005:  0.2439  0.3044    0.2876  0.4648    4.3874  0.6002    0.0263  0.5611

                      VXX         VYY         VZZ       UP TO R
:VZZ005:             0.43846    -0.57550     0.13704       2.430

:POS006: ATOM   -6 X,Y,Z = 0.50000 0.25000 0.50000  MULT= 2  ZZ= 45.000  Rh3       

       LMMAX 28
       LM=   0 0  1 1 -1 1  2 0  2 2 -2 2  3 1 -3 1  3 3 -3 3  4 0  4 2 -4 2  4 4 -4 4  5 1 -5 1
         5 3 -5 3  5 5 -5 5  6 0  6 2 -6 2  6 4 -6 4  6 6 -6 6

:CHA006: TOTAL VALENCE CHARGE INSIDE SPHERE   6 =   7.3072    (RMT=  2.4300 )
:PCS006: PARTIAL CHARGES SPHERE =  6 S,P,D,F,PX,PY,PZ,D-Z2,D-X2Y2,D-XY,D-XZ,D-YZ 
:QTL006: 0.2031 3.1977 3.8639 0.0325 1.0612 1.0702 1.0664 0.8077 0.7501 0.8138 0.7694 0.7229
        Q-s-low E-s-low   Q-p-low E-p-low   Q-d-low E-d-low   Q-f-low E-f-low
:EPL006:  0.0004 -2.7569    2.9787 -2.6491    0.0009 -2.7601    0.0004 -2.7670
        Q-s-hi  E-s-hi    Q-p-hi  E-p-hi    Q-d-hi  E-d-hi    Q-f-hi  E-f-hi 
:EPH006:  0.2028  0.3236    0.2190  0.4824    3.8630  0.5424    0.0321  0.5615

                      QXX         QXY         QYY         QZZ       UP TO R
:VZZ006:             0.15167    -0.00000    -0.40953     0.25785       2.430

:CHA  : TOTAL VALENCE CHARGE INSIDE UNIT CELL =      66.295134

:SUM  : SUM OF EIGENVALUES =         -47.290735377

:GAP (global)   :    0.0    Ry =     0.0   eV (metal)
:GAP (this spin):    0.0    Ry =     0.0   eV (metal)
         Bandranges (emin - emax) and occupancy:
:BAN00043:  43    0.629203    0.736138  1.00000000
:BAN00044:  44    0.640338    0.747500  1.00000000
:BAN00045:  45    0.648031    0.762642  1.00000000
:BAN00046:  46    0.659930    0.766032  1.00000000
:BAN00047:  47    0.666385    0.788332  0.99998386
:BAN00048:  48    0.666392    0.788366  0.99997206
:BAN00049:  49    0.739803    0.816809  0.79168008
:BAN00050:  50    0.750911    0.819100  0.61652817
:BAN00051:  51    0.763746    0.833011  0.25489995
:BAN00052:  52    0.772694    0.834444  0.04178454
:BAN00053:  53    0.785025    0.849732  0.00001744
:BAN00054:  54    0.793473    0.850329  0.00000000
:BAN00055:  55    0.798789    0.855655  0.00000000
:BAN00056:  56    0.810944    0.859782  0.00000000
:BAN00057:  57    0.816797    0.864804  0.00000000
:BAN00058:  58    0.817881    0.866793  0.00000000
        Energy to separate low and high energystates:    0.14064


:NOE  : NUMBER OF ELECTRONS          =  116.000

:FER  : F E R M I - ENERGY(TETRAH.M.)=   0.7865688422
:GMA  : POTENTIAL AND CHARGE CUT-OFF  12.00 Ry**.5

:POS001: ATOM   -1 X,Y,Z = 0.00000 0.00000 0.00000  MULT= 1  ZZ= 26.000  Fe1       

       LMMAX 16
       LM=   0 0  1 0  2 0  2 2  3 0  3 2  4 0  4 2  4 4  5 0  5 2  5 4  6 0  6 2  6 4  6 6

:CHA001: TOTAL VALENCE CHARGE INSIDE SPHERE   1 =   5.2300    (RMT=  2.4300 )
:PCS001: PARTIAL CHARGES SPHERE =  1 S,P,D,F,PX,PY,PZ,D-Z2,D-X2Y2,D-XY,D-XZ,D-YZ 
:QTL001: 0.2269 3.2431 1.7373 0.0175 1.0836 1.0821 1.0774 0.3808 0.2708 0.3925 0.4440 0.2490
        Q-s-low E-s-low   Q-p-low E-p-low   Q-d-low E-d-low   Q-f-low E-f-low
:EPL001:  0.0003 -2.6437    2.9944 -3.0060    0.0008 -2.6470    0.0004 -2.6493
        Q-s-hi  E-s-hi    Q-p-hi  E-p-hi    Q-d-hi  E-d-hi    Q-f-hi  E-f-hi 
:EPH001:  0.2266  0.4237    0.2486  0.5793    1.7364  0.6538    0.0171  0.6368

                      VXX         VYY         VZZ       UP TO R
:VZZ001:            -1.19870     2.31720    -1.11849       2.430

:POS002: ATOM   -2 X,Y,Z = 0.00000 0.00000 0.50000  MULT= 1  ZZ= 26.000  Fe2       

       LMMAX 16
       LM=   0 0  1 0  2 0  2 2  3 0  3 2  4 0  4 2  4 4  5 0  5 2  5 4  6 0  6 2  6 4  6 6

:CHA002: TOTAL VALENCE CHARGE INSIDE SPHERE   2 =   5.2300    (RMT=  2.4300 )
:PCS002: PARTIAL CHARGES SPHERE =  2 S,P,D,F,PX,PY,PZ,D-Z2,D-X2Y2,D-XY,D-XZ,D-YZ 
:QTL002: 0.2269 3.2431 1.7373 0.0175 1.0836 1.0821 1.0774 0.3808 0.2708 0.3925 0.4440 0.2490
        Q-s-low E-s-low   Q-p-low E-p-low   Q-d-low E-d-low   Q-f-low E-f-low
:EPL002:  0.0003 -2.6437    2.9944 -3.0060    0.0008 -2.6470    0.0004 -2.6493
        Q-s-hi  E-s-hi    Q-p-hi  E-p-hi    Q-d-hi  E-d-hi    Q-f-hi  E-f-hi 
:EPH002:  0.2266  0.4237    0.2486  0.5793    1.7364  0.6538    0.0171  0.6368

                      VXX         VYY         VZZ       UP TO R
:VZZ002:            -1.19870     2.31720    -1.11849       2.430

:POS003: ATOM   -3 X,Y,Z = 0.00000 0.25000 0.25000  MULT= 2  ZZ= 45.000  Rh1       

       LMMAX 28
       LM=   0 0  1 1 -1 1  2 0  2 2 -2 2  3 1 -3 1  3 3 -3 3  4 0  4 2 -4 2  4 4 -4 4  5 1 -5 1
         5 3 -5 3  5 5 -5 5  6 0  6 2 -6 2  6 4 -6 4  6 6 -6 6

:CHA003: TOTAL VALENCE CHARGE INSIDE SPHERE   3 =   6.0540    (RMT=  2.4300 )
:PCS003: PARTIAL CHARGES SPHERE =  3 S,P,D,F,PX,PY,PZ,D-Z2,D-X2Y2,D-XY,D-XZ,D-YZ 
:QTL003: 0.1913 3.1650 2.6712 0.0208 1.0531 1.0587 1.0532 0.4527 0.5931 0.4516 0.6086 0.5651
        Q-s-low E-s-low   Q-p-low E-p-low   Q-d-low E-d-low   Q-f-low E-f-low
:EPL003:  0.0003 -2.6469    2.9797 -2.5475    0.0009 -2.6485    0.0004 -2.6532
        Q-s-hi  E-s-hi    Q-p-hi  E-p-hi    Q-d-hi  E-d-hi    Q-f-hi  E-f-hi 
:EPH003:  0.1910  0.4492    0.1854  0.5974    2.6704  0.5833    0.0204  0.6394

                      QXX         QXY         QYY         QZZ       UP TO R
:VZZ003:            -0.78637     0.00000    -0.25149     1.03786       2.430

:POS004: ATOM   -4 X,Y,Z = 0.50000 0.00000 0.25000  MULT= 1  ZZ= 26.000  Fe3       

       LMMAX 16
       LM=   0 0  1 0  2 0  2 2  3 0  3 2  4 0  4 2  4 4  5 0  5 2  5 4  6 0  6 2  6 4  6 6

:CHA004: TOTAL VALENCE CHARGE INSIDE SPHERE   4 =   5.2305    (RMT=  2.4300 )
:PCS004: PARTIAL CHARGES SPHERE =  4 S,P,D,F,PX,PY,PZ,D-Z2,D-X2Y2,D-XY,D-XZ,D-YZ 
:QTL004: 0.2269 3.2431 1.7377 0.0175 1.0836 1.0821 1.0773 0.3811 0.2711 0.3926 0.4439 0.2490
        Q-s-low E-s-low   Q-p-low E-p-low   Q-d-low E-d-low   Q-f-low E-f-low
:EPL004:  0.0003 -2.6437    2.9944 -3.0060    0.0008 -2.6470    0.0004 -2.6493
        Q-s-hi  E-s-hi    Q-p-hi  E-p-hi    Q-d-hi  E-d-hi    Q-f-hi  E-f-hi 
:EPH004:  0.2266  0.4237    0.2487  0.5793    1.7368  0.6539    0.0171  0.6368

[...]

                      QXX         QXY         QYY         QZZ       UP TO R
:VZZ003:             0.16577     0.00000    -1.65125     1.48548       2.430

:POS004: ATOM   -4 X,Y,Z = 0.50000 0.00000 0.25000  MULT= 1  ZZ= 26.000  Fe3       

       LMMAX 16
       LM=   0 0  1 0  2 0  2 2  3 0  3 2  4 0  4 2  4 4  5 0  5 2  5 4  6 0  6 2  6 4  6 6

:CHA004: TOTAL VALENCE CHARGE INSIDE SPHERE   4 =   5.0984    (RMT=  2.4300 )
:PCS004: PARTIAL CHARGES SPHERE =  4 S,P,D,F,PX,PY,PZ,D-Z2,D-X2Y2,D-XY,D-XZ,D-YZ 
:QTL004: 0.2145 3.2158 1.6464 0.0164 1.0745 1.0752 1.0661 0.3673 0.2491 0.3764 0.4297 0.2239
        Q-s-low E-s-low   Q-p-low E-p-low   Q-d-low E-d-low   Q-f-low E-f-low
:EPL004:  0.0003 -2.7809    2.9948 -3.1168    0.0008 -2.7834    0.0003 -2.7864
        Q-s-hi  E-s-hi    Q-p-hi  E-p-hi    Q-d-hi  E-d-hi    Q-f-hi  E-f-hi 
:EPH004:  0.2142  0.3497    0.2210  0.4873    1.6456  0.5640    0.0160  0.5354

                      VXX         VYY         VZZ       UP TO R
:VZZ004:            -1.46491     2.51585    -1.05094       2.430

:POS005: ATOM   -5 X,Y,Z = 0.50000 0.00000 0.75000  MULT= 1  ZZ= 26.000  Fe4       

       LMMAX 16
       LM=   0 0  1 0  2 0  2 2  3 0  3 2  4 0  4 2  4 4  5 0  5 2  5 4  6 0  6 2  6 4  6 6

:CHA005: TOTAL VALENCE CHARGE INSIDE SPHERE   5 =   5.0984    (RMT=  2.4300 )
:PCS005: PARTIAL CHARGES SPHERE =  5 S,P,D,F,PX,PY,PZ,D-Z2,D-X2Y2,D-XY,D-XZ,D-YZ 
:QTL005: 0.2145 3.2158 1.6464 0.0164 1.0745 1.0752 1.0661 0.3673 0.2491 0.3764 0.4297 0.2239
        Q-s-low E-s-low   Q-p-low E-p-low   Q-d-low E-d-low   Q-f-low E-f-low
:EPL005:  0.0003 -2.7809    2.9948 -3.1168    0.0008 -2.7834    0.0003 -2.7864
        Q-s-hi  E-s-hi    Q-p-hi  E-p-hi    Q-d-hi  E-d-hi    Q-f-hi  E-f-hi 
:EPH005:  0.2142  0.3497    0.2210  0.4873    1.6456  0.5640    0.0160  0.5354

                      VXX         VYY         VZZ       UP TO R
:VZZ005:            -1.46491     2.51585    -1.05094       2.430

:POS006: ATOM   -6 X,Y,Z = 0.50000 0.25000 0.50000  MULT= 2  ZZ= 45.000  Rh3       

       LMMAX 28
       LM=   0 0  1 1 -1 1  2 0  2 2 -2 2  3 1 -3 1  3 3 -3 3  4 0  4 2 -4 2  4 4 -4 4  5 1 -5 1
         5 3 -5 3  5 5 -5 5  6 0  6 2 -6 2  6 4 -6 4  6 6 -6 6

:CHA006: TOTAL VALENCE CHARGE INSIDE SPHERE   6 =   6.2991    (RMT=  2.4300 )
:PCS006: PARTIAL CHARGES SPHERE =  6 S,P,D,F,PX,PY,PZ,D-Z2,D-X2Y2,D-XY,D-XZ,D-YZ 
:QTL006: 0.1899 3.1578 2.9257 0.0200 1.0490 1.0580 1.0508 0.5128 0.6305 0.5254 0.6539 0.6031
        Q-s-low E-s-low   Q-p-low E-p-low   Q-d-low E-d-low   Q-f-low E-f-low
:EPL006:  0.0003 -2.7873    2.9808 -2.6931    0.0008 -2.7882    0.0004 -2.7923
        Q-s-hi  E-s-hi    Q-p-hi  E-p-hi    Q-d-hi  E-d-hi    Q-f-hi  E-f-hi 
:EPH006:  0.1896  0.3609    0.1769  0.5019    2.9249  0.4846    0.0196  0.5377

                      QXX         QXY         QYY         QZZ       UP TO R
:VZZ006:             0.16826     0.00000    -1.68582     1.51756       2.430

:CHA  : TOTAL VALENCE CHARGE INSIDE UNIT CELL =      49.959049

:SUM  : SUM OF EIGENVALUES =         -56.942801606


        1.ATOM      Fe1                   5 CORE STATES
       CORE-FORCE in mRy/a.u. = |F|      Fx             Fy             Fz
:FCO001:   1.ATOM      0.000001142982      0.000000000000      0.000000000000     -0.000001142982

:1S 001: 1S                -513.145187690 Ry
:2S 001: 2S                 -59.100426638 Ry
:2PP001: 2P*                -50.793103415 Ry
:2P 001: 2P                 -49.876493227 Ry
:3S 001: 3S                  -5.818117269 Ry

        2.ATOM      Fe2                   5 CORE STATES
       CORE-FORCE in mRy/a.u. = |F|      Fx             Fy             Fz
:FCO002:   2.ATOM      0.000001143266      0.000000000000      0.000000000000      0.000001143266

:1S 002: 1S                -513.145187653 Ry
:2S 002: 2S                 -59.100426619 Ry
:2PP002: 2P*                -50.793103394 Ry
:2P 002: 2P                 -49.876493206 Ry
:3S 002: 3S                  -5.818117260 Ry

        3.ATOM      Rh1                  10 CORE STATES
       CORE-FORCE in mRy/a.u. = |F|      Fx             Fy             Fz
:FCO003:   3.ATOM      0.000003111718      0.000003111313      0.000000050168      0.000000000000

:1S 003: 1S               -1691.484962373 Ry
:2S 003: 2S                -244.383956886 Ry
:2PP003: 2P*               -226.192260662 Ry
:2P 003: 2P                -215.563269913 Ry
:3S 003: 3S                 -42.900006804 Ry
:3PP003: 3P*                -35.783092885 Ry
:3P 003: 3P                 -33.953786544 Ry
:3DD003: 3D*                -21.360534014 Ry
:3D 003: 3D                 -20.999698985 Ry
:4S 003: 4S                  -5.132914817 Ry

        4.ATOM      Fe3                   5 CORE STATES
       CORE-FORCE in mRy/a.u. = |F|      Fx             Fy             Fz
:FCO004:   4.ATOM      0.000010438904      0.000000000000      0.000000000000      0.000010438904

:1S 004: 1S                -513.145139379 Ry
:2S 004: 2S                 -59.100367525 Ry
:2PP004: 2P*                -50.793046823 Ry
:2P 004: 2P                 -49.876436421 Ry
:3S 004: 3S                  -5.818048834 Ry

        5.ATOM      Fe4                   5 CORE STATES
       CORE-FORCE in mRy/a.u. = |F|      Fx             Fy             Fz
:FCO005:   5.ATOM      0.000010400718      0.000000000000      0.000000000000     -0.000010400718

:1S 005: 1S                -513.145139375 Ry
:2S 005: 2S                 -59.100367523 Ry
:2PP005: 2P*                -50.793046821 Ry
:2P 005: 2P                 -49.876436418 Ry
:3S 005: 3S                  -5.818048834 Ry

        6.ATOM      Rh3                  10 CORE STATES
       CORE-FORCE in mRy/a.u. = |F|      Fx             Fy             Fz
:FCO006:   6.ATOM      0.000028267087     -0.000028267065      0.000000035704      0.000000000000

:1S 006: 1S               -1691.485004002 Ry
:2S 006: 2S                -244.384002979 Ry
:2PP006: 2P*               -226.192307746 Ry
:2P 006: 2P                -215.563316931 Ry
:3S 006: 3S                 -42.900052330 Ry
:3PP006: 3P*                -35.783138380 Ry
:3P 006: 3P                 -33.953831986 Ry
:3DD006: 3D*                -21.360579142 Ry
:3D 006: 3D                 -20.999744087 Ry
:4S 006: 4S                  -5.132948301 Ry

        1.ATOM      Fe1                   5 CORE STATES
       CORE-FORCE in mRy/a.u. = |F|      Fx             Fy             Fz
:FCO001:   1.ATOM      0.000001116323      0.000000000000      0.000000000000     -0.000001116323

:1S 001: 1S                -513.144950724 Ry
:2S 001: 2S                 -59.009493385 Ry
:2PP001: 2P*                -50.725413687 Ry
:2P 001: 2P                 -49.806823205 Ry
:3S 001: 3S                  -5.607827654 Ry

        2.ATOM      Fe2                   5 CORE STATES
       CORE-FORCE in mRy/a.u. = |F|      Fx             Fy             Fz
:FCO002:   2.ATOM      0.000001113082      0.000000000000      0.000000000000      0.000001113082

:1S 002: 1S                -513.144950687 Ry
:2S 002: 2S                 -59.009493364 Ry
:2PP002: 2P*                -50.725413664 Ry
:2P 002: 2P                 -49.806823182 Ry
:3S 002: 3S                  -5.607827641 Ry

        3.ATOM      Rh1                  10 CORE STATES
       CORE-FORCE in mRy/a.u. = |F|      Fx             Fy             Fz
:FCO003:   3.ATOM      0.000003040280      0.000003039810      0.000000053447      0.000000000000

:1S 003: 1S               -1691.484464177 Ry
:2S 003: 2S                -244.366559983 Ry
:2PP003: 2P*               -226.179681743 Ry
:2P 003: 2P                -215.549791879 Ry
:3S 003: 3S                 -42.890637997 Ry
:3PP003: 3P*                -35.772194928 Ry
:3P 003: 3P                 -33.943259641 Ry
:3DD003: 3D*                -21.344247198 Ry
:3D 003: 3D                 -20.983468623 Ry
:4S 003: 4S                  -5.054766053 Ry

        4.ATOM      Fe3                   5 CORE STATES
       CORE-FORCE in mRy/a.u. = |F|      Fx             Fy             Fz
:FCO004:   4.ATOM      0.000010162395      0.000000000000      0.000000000000      0.000010162395

:1S 004: 1S                -513.144903117 Ry
:2S 004: 2S                 -59.009452718 Ry
:2PP004: 2P*                -50.725371078 Ry
:2P 004: 2P                 -49.806780766 Ry
:3S 004: 3S                  -5.607806678 Ry

        5.ATOM      Fe4                   5 CORE STATES
       CORE-FORCE in mRy/a.u. = |F|      Fx             Fy             Fz
:FCO005:   5.ATOM      0.000010124628      0.000000000000      0.000000000000     -0.000010124628

:1S 005: 1S                -513.144903113 Ry
:2S 005: 2S                 -59.009452716 Ry
:2PP005: 2P*                -50.725371075 Ry
:2P 005: 2P                 -49.806780763 Ry
:3S 005: 3S                  -5.607806677 Ry

        6.ATOM      Rh3                  10 CORE STATES
       CORE-FORCE in mRy/a.u. = |F|      Fx             Fy             Fz
:FCO006:   6.ATOM      0.000027649301     -0.000027649279      0.000000035005      0.000000000000

:1S 006: 1S               -1691.484505602 Ry
:2S 006: 2S                -244.366609613 Ry
:2PP006: 2P*               -226.179731271 Ry
:2P 006: 2P                -215.549841539 Ry
:3S 006: 3S                 -42.890685214 Ry
:3PP006: 3P*                -35.772242409 Ry
:3P 006: 3P                 -33.943306989 Ry
:3DD006: 3D*                -21.344295449 Ry
:3D 006: 3D                 -20.983516834 Ry
:4S 006: 4S                  -5.054811180 Ry
:CINT001 Core Integral Atom   1 Up    5.999645 Dn   5.999618 Total  11.999264
:CINT002 Core Integral Atom   2 Up    5.999645 Dn   5.999618 Total  11.999264
:CINT003 Core Integral Atom   3 Up   14.998703 Dn  14.998717 Total  29.997420
:CINT004 Core Integral Atom   4 Up    5.999646 Dn   5.999617 Total  11.999263
:CINT005 Core Integral Atom   5 Up    5.999646 Dn   5.999617 Total  11.999263
:CINT006 Core Integral Atom   6 Up   14.998703 Dn  14.998718 Total  29.997421

       DENSITY AT NUCLEUS
        JATOM        VALENCE       SEMI-CORE          CORE           TOTAL
:RTO001:   1        6.480073        0.000000    15303.072290    15309.552363
:RTO002:   2        6.480073        0.000000    15303.072290    15309.552363
:RTO003:   3       20.832641        0.000000   129456.420735   129477.253376
:RTO004:   4        6.878906        0.000000    16258.362766    16265.241672
:RTO005:   5        6.878906        0.000000    16258.362766    16265.241672
:RTO006:   6       24.986487        0.000000   155315.487747   155340.474233

       HYPERFINE FIELDS FOR THOMSON RADIUS
:HFF001:          113.097           0.000        -321.916        -208.819 (KGAUSS)
:HFF002:          113.097           0.000        -321.916        -208.819 (KGAUSS)
:HFF003:           89.126           0.000        -384.684        -295.558 (KGAUSS)
:HFF004:          111.742           0.000        -321.683        -209.940 (KGAUSS)
:HFF005:          111.742           0.000        -321.683        -209.940 (KGAUSS)
:HFF006:           89.420           0.000        -384.812        -295.392 (KGAUSS)
     
       CHARGES OF NEW CHARGE DENSITY
:NTO   : INTERSTITIAL     UP =     4.658033 DN =     4.370454 TOT =     9.028486
:NPC   : PW Pseudocharge  UP =    11.727726 DN =     9.834004 TOT =    21.561730
:NTO001: CHARGE SPHERE  1 UP =    13.993567 DN =    11.097635 TOT =    25.091202
:NTO002: CHARGE SPHERE  2 UP =    13.993567 DN =    11.097635 TOT =    25.091202
:NTO003: CHARGE SPHERE  3 UP =    22.350888 DN =    21.297436 TOT =    43.648323
:NTO004: CHARGE SPHERE  4 UP =    13.992999 DN =    11.098043 TOT =    25.091042
:NTO005: CHARGE SPHERE  5 UP =    13.992999 DN =    11.098043 TOT =    25.091042
:NTO006: CHARGE SPHERE  6 UP =    22.350664 DN =    21.297829 TOT =    43.648494

:NEC01: NUCLEAR AND ELECTRONIC CHARGE    284.00000   283.98661
     
       CHARGES OF OLD CHARGE DENSITY
:OTO   : INTERSTITIAL     UP =     5.138022 DN =     3.302913 TOT =     8.440935
:OPC   : PW Pseudocharge  UP =    14.846104 DN =     9.866933 TOT =    24.713037
:OTO001: CHARGE SPHERE  1 UP =    14.014700 DN =    11.146253 TOT =    25.160953
:OTO002: CHARGE SPHERE  2 UP =    14.014700 DN =    11.146253 TOT =    25.160953
:OTO003: CHARGE SPHERE  3 UP =    22.727844 DN =    21.000967 TOT =    43.728811
:OTO004: CHARGE SPHERE  4 UP =    14.014399 DN =    11.146590 TOT =    25.160989
:OTO005: CHARGE SPHERE  5 UP =    14.014399 DN =    11.146590 TOT =    25.160989
:OTO006: CHARGE SPHERE  6 UP =    22.727717 DN =    21.001062 TOT =    43.728779

:NEC02: NUCLEAR AND ELECTRONIC CHARGE    284.00000   284.00000
     
       CONVERGENCE TEST
:DTO001: DIFFERENCE SPHERE  1 UP =  0.1907928 DN =  0.2230353 TOT =  0.4138281
:DTO002: DIFFERENCE SPHERE  2 UP =  0.1907929 DN =  0.2230354 TOT =  0.4138283
:DTO003: DIFFERENCE SPHERE  3 UP =  0.2015186 DN =  0.1554028 TOT =  0.3569214
:DTO004: DIFFERENCE SPHERE  4 UP =  0.1905417 DN =  0.2230061 TOT =  0.4135478
:DTO005: DIFFERENCE SPHERE  5 UP =  0.1905417 DN =  0.2230061 TOT =  0.4135479
:DTO006: DIFFERENCE SPHERE  6 UP =  0.2015980 DN =  0.1555805 TOT =  0.3571785

:DIS  :  CHARGE DISTANCE       ( 0.2230354 for atom    2 spin 2)      0.7707380
 PW Mixed is          702
 
******************************************************
* MULTISECANT MIXING VER9 RELEASE 10.4.0              *
* Slow Mode, cautious                                *
* Fixed density scale                                *
* Regularization       1.000E-04                     *
* Step Trust Radius    0.75000                       *
* Trust Upper Limit    2.000E+00                     *
* Max Number of Memory Steps   12                    *
******************************************************
 
:PWTMP   2.3530E+02  9.1833E+02  7.1614E+02
:PLANE:  PW TOTAL      3.7903 DISTAN   7.83E-01  2.07E+01 %
:CHARG:  CLM/ATOM    149.9370 DISTAN   1.38E-01  9.18E-02 %
 :WARNING:  ERROR in reading files, restarted
 
Step History
        DMIX         DMIXT        Red     Pred      Trust     Lambda    MagRel    MagAbs     Beta
  1   2.5000E-02   3.5000E-02 -1.00E+00  1.00E+00 -1.00E+01  1.00E+00  3.50E-02  3.50E-02  1.00E+00
:INFO :  Note, Pratt in use
:TRUST:  Step 3.75E-02  Charge 7.50E-02 (e) CTO  2.50E-01 (e) PW  3.50E-01 (e)
:DIRM :  MEMORY  0/12 SCALE   1.000
:MIX  :   PRATT  REGULARIZATION:  1.00E-04 GREED: 0.02500                  
     
       CHARGES OF MIXED CHARGE DENSITY
:CTO   : INTERSTITIAL     UP =     5.126195 DN =     3.329763 TOT =     8.455959
:CPC   : PW Pseudocharge  UP =    14.768580 DN =     9.866474 TOT =    24.635054
:CTO001: CHARGE SPHERE  1 UP =    14.014172 DN =    11.145037 TOT =    25.159209
:CTO002: CHARGE SPHERE  2 UP =    14.014172 DN =    11.145037 TOT =    25.159209
:CTO003: CHARGE SPHERE  3 UP =    22.718420 DN =    21.008379 TOT =    43.726799
:CTO004: CHARGE SPHERE  4 UP =    14.013864 DN =    11.145376 TOT =    25.159241
:CTO005: CHARGE SPHERE  5 UP =    14.013864 DN =    11.145376 TOT =    25.159241
:CTO006: CHARGE SPHERE  6 UP =    22.718291 DN =    21.008481 TOT =    43.726772

       SPIN MAGNETIC MOMENTS OF MIXED CHARGE DENSITY
:MMINT:  MAGNETIC MOMENT IN INTERSTITIAL  =    1.79643
:MMI001: MAGNETIC MOMENT IN SPHERE   1    =    2.86913
:MMI002: MAGNETIC MOMENT IN SPHERE   2    =    2.86913
:MMI003: MAGNETIC MOMENT IN SPHERE   3    =    1.71004
:MMI004: MAGNETIC MOMENT IN SPHERE   4    =    2.86849
:MMI005: MAGNETIC MOMENT IN SPHERE   5    =    2.86849
:MMI006: MAGNETIC MOMENT IN SPHERE   6    =    1.70981
:MMTOT:  SPIN MAGNETIC MOMENT IN CELL     =   20.11138

:NEC03: NUCLEAR AND ELECTRONIC CHARGE    284.00000   284.00000

PW CHANGE     H    K    L             Current                    Change               Residue
:PUP001:      0    0    0  2.77805402E-02 0.00000000E+00 -1.248E-04  0.000E+00 -4.991E-03  0.000E+00
:PUP002:      0   -1    1 -2.13304201E-12 2.43854755E-13 -4.864E-13  5.426E-14 -1.946E-11  2.170E-12
:PUP003:      0   -1   -1 -2.13304201E-12-2.43854755E-13 -4.864E-13 -5.426E-14 -1.946E-11 -2.170E-12
:PUP004:      0   -2    0 -6.87246083E-03 0.00000000E+00  6.150E-05  0.000E+00  2.460E-03  0.000E+00
:PUP005:      0    0    2  6.91957918E-07-9.93170259E-16  4.954E-09 -2.641E-17  1.982E-07 -1.056E-15
:PUP006:      0    0   -2  6.91957918E-07 9.93170259E-16  4.954E-09  2.641E-17  1.982E-07  1.056E-15
:PUP007:     -1    0    0 -1.34705764E-07 0.00000000E+00  5.997E-09  0.000E+00  2.399E-07  0.000E+00
:PUP008:      0   -2    2  4.69227763E-08-8.09823488E-16  2.574E-08  2.646E-18  1.030E-06  8.125E-16
:PUP009:      0   -2   -2  4.69227763E-08 8.09823488E-16  2.574E-08 -2.646E-18  1.030E-06 -8.125E-16
:PUP010:     -1   -1    1 -1.96537971E-12-2.20361236E-13 -5.818E-14 -7.326E-15 -2.327E-12 -2.930E-13
:PUP011:     -1   -1   -1 -1.96537971E-12 2.20361236E-13 -5.818E-14  7.326E-15 -2.327E-12  2.930E-13
:PUP012:      0   -3    1  3.05705272E-12-3.24787434E-13  1.350E-13 -1.554E-14  5.402E-12 -6.216E-13
  
:PDN001:      0    0    0  1.84268789E-02 0.00000000E+00  3.685E-05  0.000E+00  1.474E-03  0.000E+00
:PDN002:      0   -1    1  1.49362959E-11-1.63075787E-12  6.338E-13 -6.088E-14  2.535E-11 -2.435E-12
:PDN003:      0   -1   -1  1.49362959E-11 1.63075787E-12  6.338E-13  6.088E-14  2.535E-11  2.435E-12
:PDN004:      0   -2    0 -4.63023691E-03 0.00000000E+00 -1.485E-06  0.000E+00 -5.940E-05  0.000E+00
:PDN005:      0    0    2 -6.00776843E-07-4.04571196E-16 -5.970E-09 -1.343E-17 -2.388E-07  3.911E-16
:PDN006:      0    0   -2 -6.00776843E-07 4.04571196E-16 -5.970E-09  1.343E-17 -2.388E-07 -3.911E-16
:PDN007:     -1    0    0 -6.50393455E-07 0.00000000E+00  1.524E-08  0.000E+00  6.095E-07  0.000E+00
:PDN008:      0   -2    2 -9.82896611E-07 4.76861304E-16  3.397E-09  3.623E-17  1.359E-07  1.449E-15
:PDN009:      0   -2   -2 -9.82896611E-07-4.76861304E-16  3.397E-09 -3.623E-17  1.359E-07 -1.449E-15
:PDN010:     -1   -1    1  1.03988548E-11 1.09614322E-12  9.958E-13  1.017E-13  3.983E-11  4.066E-12
:PDN011:     -1   -1   -1  1.03988548E-11-1.09614322E-12  9.958E-13 -1.017E-13  3.983E-11 -4.066E-12
:PDN012:      0   -3    1  8.86880355E-12-9.66487968E-13  9.089E-13 -9.751E-14  3.636E-11 -3.900E-12

:ENE  : *WARNING** TOTAL ENERGY IN Ry =       -48464.26740687

       TOTAL FORCE IN mRy/a.u. = |F|     Fx             Fy             Fz     with/without FOR in case.in2
:FOR001:   1.ATOM          0.000          0.000          0.000          0.000 partial forces
:FOR002:   2.ATOM          0.000          0.000          0.000         -0.000 partial forces
:FOR003:   3.ATOM          0.000         -0.000         -0.000          0.000 partial forces
:FOR004:   4.ATOM          0.000          0.000          0.000         -0.000 partial forces
:FOR005:   5.ATOM          0.000          0.000          0.000          0.000 partial forces
:FOR006:   6.ATOM          0.000          0.000         -0.000          0.000 partial forces
       TOTAL FORCE WITH RESPECT TO GLOBAL CARTESIAN COORDINATES:
:FCA001:   1.ATOM                         0.000          0.000          0.000 partial forces
:FCA002:   2.ATOM                         0.000          0.000         -0.000 partial forces
:FCA003:   3.ATOM                         0.000         -0.000         -0.000 partial forces
:FCA004:   4.ATOM                         0.000          0.000         -0.000 partial forces
:FCA005:   5.ATOM                         0.000          0.000          0.000 partial forces
:FCA006:   6.ATOM                         0.000          0.000         -0.000 partial forces
       TOTAL FORCE WITH RESPECT TO THE GLOBAL COORDINATE SYSTEM:
:FGL001:   1.ATOM                 0.000000000     0.000000000     0.000000400 partial forces
:FGL002:   2.ATOM                 0.000000000     0.000000000    -0.000000403 partial forces
:FGL003:   3.ATOM                 0.000000000    -0.000000077    -0.000000005 partial forces
:FGL004:   4.ATOM                 0.000000000     0.000000000    -0.000003354 partial forces
:FGL005:   5.ATOM                 0.000000000     0.000000000     0.000003340 partial forces
:FGL006:   6.ATOM                 0.000000000     0.000000336    -0.000000008 partial forces
