
:LABEL1: Calculations in /home/cmueller/wien/FZU/src/FeRh/AFM/AFM-udd
:LABEL2: on cv036 at Tue Mar 11 04:48:02 PM CET 2025
:LABEL3: using WIEN2k_19.1 (Release 25/6/2019) in /home/cmueller/WIENROOT
:LABEL4: using the command: run_lapw
 Flat Integration
 New Mode for Coulomb Integral
 Consistent 3/8+Simpson combinations
 Extension of core to zero
 LDM version in phi
 Fifth-order quadrature in outwin


            ---------
:ITE001:  1. ITERATION
            ---------

:NATO :    3 INDEPENDENT AND    4 TOTAL ATOMS IN UNITCELL
       SUBSTANCE: FeRh                                                        

       LATTICE                      = F   
:POT  : POTENTIAL OPTION EX_PBE EC_PBE VX_PBE VC_PBE
:LAT  : LATTICE CONSTANTS= 11.27222 11.27222 11.27222    1.571    1.571    1.571
:VOL  : UNIT CELL VOLUME =     358.07036
       MODE OF CALCULATION IS       = RELA
       NON-SPINPOLARIZED CALCULATION
:IFFT  : FFT-parameters:   90   90   90 Factor: 2.00


   CONVERGENCE PARAMETER FOR PSEUDOCHARGE: NCON=  9
   MAXIMAL VALUE OF RMT(JATOM)*ABSK(NKK) : RK  =29.05063


:VKCOUL :  VK-COUL convergence: 0.126E-05
       ATOMNUMBER=  1 Fe1        VCOUL-ZERO =  0.65836E+00
       ATOMNUMBER=  2 Fe2        VCOUL-ZERO =  0.65836E+00
       ATOMNUMBER=  3 Rh1        VCOUL-ZERO =  0.62973E+00
:FIT001: LUSE= 13 SIGMA OF V-XC FIT FOR ATOM  1  0.5273943E-02
:FIT001: LUSE= 13 SIGMA OF V-XC FIT FOR ATOM  1  0.5273943E-02
:FIT002: LUSE= 13 SIGMA OF V-XC FIT FOR ATOM  2  0.5273943E-02
:FIT002: LUSE= 13 SIGMA OF V-XC FIT FOR ATOM  2  0.5273943E-02
:FIT003: LUSE= 13 SIGMA OF V-XC FIT FOR ATOM  3  0.1324738E-02
:FIT003: LUSE= 13 SIGMA OF V-XC FIT FOR ATOM  3  0.1324738E-02
:DEN  : DENSITY INTEGRAL  =         -9889.77809320   (Ry)
       ELS_POTENTIAL_AT Z=0 and Z=0.5:  -0.23886  -0.23886
       ELS_POTENTIAL_AT Y=0 and Y=0.5:   0.00000   0.00000
:VZERO:v0,v0c,v0x  -0.98015  -0.23886  -0.74129 v5,v5c,v5x  -0.98015  -0.23886  -0.74129
:VZERY:v0,v0c,v0x  -0.85926   0.00000  -0.85926 v5,v5c,v5x  -0.85926   0.00000  -0.85926
:VZERX:v0,v0c,v0x  -0.85926   0.00000  -0.85926 v5,v5c,v5x  -0.85926   0.00000  -0.85926
:LMAX-WF:   10   Non-Spherical LMAX:   4

          ATOMIC SPHERE DEPENDENT PARAMETERS FOR ATOM  Fe1       
:e__0001: OVERALL ENERGY PARAMETER IS    0.3000
          OVERALL BASIS SET ON ATOM IS LAPW
:E1_0001: E( 1)=    0.3000
             APW+lo
:E1_0001: E( 1)=   -3.0753   E(BOTTOM)=   -3.109   E(TOP)=   -3.042  1  2   186
             LOCAL ORBITAL
:E2_0001: E( 2)=    0.7000   E(BOTTOM)=    0.450   E(TOP)=    0.950  0  1   138
             APW+lo
:E0_0001: E( 0)=    0.3000
             APW+lo

          ATOMIC SPHERE DEPENDENT PARAMETERS FOR ATOM  Fe2       
:e__0002: OVERALL ENERGY PARAMETER IS    0.3000
          OVERALL BASIS SET ON ATOM IS LAPW
:E1_0002: E( 1)=    0.3000
             APW+lo
:E1_0002: E( 1)=   -3.0753   E(BOTTOM)=   -3.109   E(TOP)=   -3.042  1  2   168
             LOCAL ORBITAL
:E2_0002: E( 2)=    0.7000   E(BOTTOM)=    0.450   E(TOP)=    0.950  0  1   138
             APW+lo
:E0_0002: E( 0)=    0.3000
             APW+lo

          ATOMIC SPHERE DEPENDENT PARAMETERS FOR ATOM  Rh1       
:e__0003: OVERALL ENERGY PARAMETER IS    0.3000
          OVERALL BASIS SET ON ATOM IS LAPW
:E0_0003: E( 0)=    0.3000
             APW+lo
:E0_0003: E( 0)=   -4.9109   E(BOTTOM)=   -4.944   E(TOP)=   -4.877  3  4   177
             LOCAL ORBITAL
:E1_0003: E( 1)=    0.3000
             APW+lo
:E1_0003: E( 1)=   -2.5776   E(BOTTOM)=   -2.678   E(TOP)=   -2.478  2  3   165
             LOCAL ORBITAL
:E2_0003: E( 2)=    0.3000   E(BOTTOM)=    0.218   E(TOP)= -200.000  1 -1    94
             APW+lo

       K=   0.00000   0.00000   0.00000            1
:RKM  : MATRIX SIZE   187LOs:  50  RKM= 6.64  WEIGHT= 1.00  PGR:    
       EIGENVALUES ARE:
:EIG00001:      -4.9056755   -4.9032839   -3.0692391   -3.0692391   -3.0692391
:EIG00006:      -3.0672932   -3.0672932   -3.0672932   -2.5604539   -2.5604539
:EIG00011:      -2.5604539   -2.5525808   -2.5525808   -2.5525808    0.1348650
:EIG00016:       0.4049680    0.4049680    0.4721518    0.4721518    0.4721518
:EIG00021:       0.6178376    0.6178376    0.6178376    0.6432026    0.6432026
:EIG00026:       0.6432026    0.7910283    0.7910283    0.8158963    0.8158963
:EIG00031:       0.8314523    0.8314523    0.8841906    0.8841906    0.8841906
:EIG00036:       1.3267377    1.3964005    1.3964005    1.3964005    1.3971498
:EIG00041:       1.3971498    1.3971498    1.5207242    1.5207242    1.5207242
:EIG00046:       1.5597588
 
       ********************************************************

:KPT   :      NUMBER OF K-POINTS:    47
:GAP (global)   :    0.0    Ry =     0.0   eV (metal)
         Bandranges (emin - emax) and occupancy:
:BAN00024:  24    0.565072    0.690087  2.00000000
:BAN00025:  25    0.565072    0.719441  2.00000000
:BAN00026:  26    0.565072    0.730705  2.00000000
:BAN00027:  27    0.701405    0.792070  2.00000000
:BAN00028:  28    0.724192    0.806290  2.00000000
:BAN00029:  29    0.737405    0.815896  1.94423729
:BAN00030:  30    0.758487    0.815896  1.88499561
:BAN00031:  31    0.781575    0.831452  1.57140393
:BAN00032:  32    0.789212    0.841511  0.59104999
:BAN00033:  33    0.807824    0.884191  0.00820823
:BAN00034:  34    0.819058    0.884191  0.00010495
:BAN00035:  35    0.830228    0.902132  0.00000000
:BAN00036:  36    0.856683    1.326738  0.00000000
:BAN00037:  37    0.901073    1.396401  0.00000000
:BAN00038:  38    0.905448    1.396401  0.00000000
:BAN00039:  39    1.337021    1.528730  0.00000000
        Energy to separate low and high energystates:    0.08486


:NOE  : NUMBER OF ELECTRONS          =   62.000

:FER  : F E R M I - ENERGY(TETRAH.M.)=   0.8085006724
:GMA  : POTENTIAL AND CHARGE CUT-OFF  12.00 Ry**.5

:POS001: ATOM    1 X,Y,Z = 0.00000 0.00000 0.00000  MULT= 1  ZZ= 26.000  Fe1       

       LMMAX  5
       LM=   0 0  4 0  4 4  6 0  6 4

:CHA001: TOTAL VALENCE CHARGE INSIDE SPHERE   1 =  13.4069    (RMT=  2.4300 )
:PCS001: PARTIAL CHARGES SPHERE =  1 S,P,D,F,      D-EG,D-T2G 
:QTL001: 0.4809 6.5449 6.3067 0.0555 0.0000 0.0000 0.0000 2.4964 3.8103 0.0000 0.0000 0.0000
        Q-s-low E-s-low   Q-p-low E-p-low   Q-d-low E-d-low   Q-f-low E-f-low
:EPL001:  0.0012 -2.6639    5.9899 -3.0680    0.0029 -2.6842    0.0012 -2.7012
        Q-s-hi  E-s-hi    Q-p-hi  E-p-hi    Q-d-hi  E-d-hi    Q-f-hi  E-f-hi 
:EPH001:  0.4798  0.3805    0.5550  0.5412    6.3038  0.6742    0.0543  0.6240

:POS002: ATOM    2 X,Y,Z = 0.50000 0.00000 0.00000  MULT= 1  ZZ= 26.000  Fe2       

       LMMAX  5
       LM=   0 0  4 0  4 4  6 0  6 4

:CHA002: TOTAL VALENCE CHARGE INSIDE SPHERE   2 =  13.4069    (RMT=  2.4300 )
:PCS002: PARTIAL CHARGES SPHERE =  2 S,P,D,F,      D-EG,D-T2G 
:QTL002: 0.4809 6.5449 6.3067 0.0555 0.0000 0.0000 0.0000 2.4964 3.8103 0.0000 0.0000 0.0000
        Q-s-low E-s-low   Q-p-low E-p-low   Q-d-low E-d-low   Q-f-low E-f-low
:EPL002:  0.0012 -2.6639    5.9899 -3.0680    0.0029 -2.6842    0.0012 -2.7012
        Q-s-hi  E-s-hi    Q-p-hi  E-p-hi    Q-d-hi  E-d-hi    Q-f-hi  E-f-hi 
:EPH002:  0.4798  0.3805    0.5550  0.5412    6.3038  0.6742    0.0543  0.6240

:POS003: ATOM    3 X,Y,Z = 0.25000 0.25000 0.25000  MULT= 2  ZZ= 45.000  Rh1       

       LMMAX  6
       LM=   0 0  4 0  4 4  6 0  6 4 -3 2

:CHA003: TOTAL VALENCE CHARGE INSIDE SPHERE   3 =  15.0638    (RMT=  2.4300 )
:PCS003: PARTIAL CHARGES SPHERE =  3 S,P,D,F,      D-EG,D-T2G 
:QTL003: 2.3735 6.3587 6.2706 0.0485 0.0000 0.0000 0.0000 2.3678 3.9029 0.0000 0.0000 0.0000
        Q-s-low E-s-low   Q-p-low E-p-low   Q-d-low E-d-low   Q-f-low E-f-low
:EPL003:  1.9974 -4.9041    5.9572 -2.5571    0.0008 -3.0068    0.0004 -3.0044
        Q-s-hi  E-s-hi    Q-p-hi  E-p-hi    Q-d-hi  E-d-hi    Q-f-hi  E-f-hi 
:EPH003:  0.3761  0.3989    0.4014  0.5649    6.2698  0.5913    0.0481  0.6595

:CHA  : TOTAL VALENCE CHARGE INSIDE UNIT CELL =      62.000000

:SUM  : SUM OF EIGENVALUES =         -66.745979948



   QTL-B VALUE .EQ.    2.99036   in Band of energy    0.82615   ATOM=    3   L=  2
    Most likely no ghostbands, but adjust Energy-parameters for this ATOM and L


:WARN : QTL-B value eq.   2.99 in Band of energy   0.82615  ATOM=    3  L=  2
:WARN : You should change the E-parameter for this atom and L-value in case.in1 (or try the -in1new switch)

        1.ATOM      Fe1                   5 CORE STATES
:1S 001: 1S                -512.917891279 Ry
:2S 001: 2S                 -58.826866001 Ry
:2PP001: 2P*                -50.530155331 Ry
:2P 001: 2P                 -49.612674471 Ry
:3S 001: 3S                  -5.554477635 Ry

        2.ATOM      Fe2                   5 CORE STATES
:1S 002: 1S                -512.917891279 Ry
:2S 002: 2S                 -58.826866001 Ry
:2PP002: 2P*                -50.530155331 Ry
:2P 002: 2P                 -49.612674471 Ry
:3S 002: 3S                  -5.554477635 Ry

        3.ATOM      Rh1                   9 CORE STATES
:1S 003: 1S               -1691.217358224 Ry
:2S 003: 2S                -244.109674305 Ry
:2PP003: 2P*               -225.919343956 Ry
:2P 003: 2P                -215.290136273 Ry
:3S 003: 3S                 -42.651986868 Ry
:3PP003: 3P*                -35.533746793 Ry
:3P 003: 3P                 -33.705449364 Ry
:3DD003: 3D*                -21.106761817 Ry
:3D 003: 3D                 -20.746244980 Ry
:CINT001 Core Integral Atom   1   11.999197
:CINT002 Core Integral Atom   2   11.999197
:CINT003 Core Integral Atom   3   28.000000

       DENSITY AT NUCLEUS
        JATOM        VALENCE       SEMI-CORE          CORE           TOTAL
:RTO001:   1        7.118310        0.000000    15301.515563    15308.633872
:RTO002:   2        7.118310        0.000000    15301.515563    15308.633872
:RTO003:   3      537.286767        0.000000   154796.822060   155334.108827
     
       CHARGES OF NEW CHARGE DENSITY
:NTO   : INTERSTITIAL CHARGE =     5.058685
:NPC   : PW Pseudocharge     =    12.059285
:NTO001: CHARGE SPHERE  1    =    25.406048
:NTO002: CHARGE SPHERE  2    =    25.406048
:NTO003: CHARGE SPHERE  3    =    43.063775

:NEC01: NUCLEAR AND ELECTRONIC CHARGE    142.00000   141.99833
     
       CHARGES OF OLD CHARGE DENSITY
:OTO   : INTERSTITIAL CHARGE =     3.805005
:OPC   : PW Pseudocharge     =    18.875488
:OTO001: CHARGE SPHERE  1    =    25.256897
:OTO002: CHARGE SPHERE  2    =    25.256897
:OTO003: CHARGE SPHERE  3    =    43.842573

:NEC02: NUCLEAR AND ELECTRONIC CHARGE    142.00000   142.00395
     
       CONVERGENCE TEST
:DTO001: DIFFERENCE IN SPHERE  1 =  0.4678921
:DTO002: DIFFERENCE IN SPHERE  2 =  0.4678920
:DTO003: DIFFERENCE IN SPHERE  3 =  0.9120684

:DIS  :  CHARGE DISTANCE       ( 0.9120684 for atom    3 spin 1)      0.6899802
 PW Mixed is           49
 
******************************************************
* MULTISECANT MIXING VER9 RELEASE 10.4.0              *
* Standard Mode with controls                        *
* Fixed density scale                                *
* Regularization       1.000E-04                     *
* Trust Upper Limit    5.000E+00                     *
* Max Number of Memory Steps    8                    *
******************************************************
 
:PWTMP   1.1765E+02  4.5917E+02  3.5807E+02
:PLANE:  PW TOTAL      2.9797 DISTAN   1.74E+00  5.83E+01 %
:CHARG:  CLM/ATOM    299.8813 DISTAN   4.90E-01  1.63E-01 %
 
Step History
        DMIX         DMIXT        Red     Pred      Trust     Lambda    MagRel    MagAbs     Beta
  1   3.5000E-02   3.5000E-02 -1.00E+00  1.00E+00 -1.00E+01  1.00E+00  3.50E-02  3.50E-02  1.00E+00
:INFO :  Note, Pratt in use
:TRUST:  Step 3.75E-02  Charge 7.50E-02 (e) CTO  2.50E-01 (e) PW  3.50E-01 (e)
:DIRM :  MEMORY  0/ 8 SCALE   1.000
Performing Pseudo Compensation
Final Pseudo Compensation Rescaling     9.98158E-01
:MIX  :   PRATT  REGULARIZATION:  1.00E-04 GREED: 0.02500                  
     
       CHARGES OF MIXED CHARGE DENSITY
:CTO   : INTERSTITIAL CHARGE =     3.832542
:CPC   : PW Pseudocharge     =    13.899478
:CTO001: CHARGE SPHERE  1    =    25.260626
:CTO002: CHARGE SPHERE  2    =    25.260626
:CTO003: CHARGE SPHERE  3    =    43.823104

:NEC03: NUCLEAR AND ELECTRONIC CHARGE    142.00000   142.00000

PW CHANGE     H    K    L      Current       Change    Residue
:PTO001:      0    0    0  4.95210497E-02 -1.375E-02 -1.545E-02
:PTO003:      0    0   -2 -2.90446578E-02  1.899E-02  3.180E-02
:PTO004:      0   -2   -2  4.14187434E-02 -9.503E-02 -1.331E-01
:PTO006:     -2   -2   -2 -1.75668362E-03  1.199E-02  1.369E-02
:PTO007:      0    0   -4 -1.01608301E-02 -2.477E-02 -2.530E-02
:PTO009:      0   -2   -4  1.27939911E-02  1.402E-02  6.294E-03
:PTO010:     -2   -2   -4 -4.00797268E-02 -4.515E-02 -2.142E-02
:PTO013:      0   -4   -4 -1.07817210E-02 -7.899E-03  2.576E-03
:PTO015:     -2   -4   -4  4.42008786E-03 -1.784E-03 -6.086E-03
:PTO016:      0    0   -6  1.11330628E-03 -4.378E-04 -1.190E-03
:PTO017:      0   -2   -6 -7.03413818E-03 -1.694E-03  6.456E-03
:PTO019:     -2   -2   -6  7.25893399E-04 -3.181E-03 -4.025E-03

:ENE  : *WARNING** TOTAL ENERGY IN Ry =       -24232.24518988

 Flat Integration
 New Mode for Coulomb Integral
 Consistent 3/8+Simpson combinations
 Extension of core to zero
 LDM version in phi
 Fifth-order quadrature in outwin


            ---------
:ITE002:  2. ITERATION
            ---------

:NATO :    3 INDEPENDENT AND    4 TOTAL ATOMS IN UNITCELL
       SUBSTANCE: FeRh                                                        

       LATTICE                      = F   
:POT  : POTENTIAL OPTION EX_PBE EC_PBE VX_PBE VC_PBE
:LAT  : LATTICE CONSTANTS= 11.27222 11.27222 11.27222    1.571    1.571    1.571
:VOL  : UNIT CELL VOLUME =     358.07036
       MODE OF CALCULATION IS       = RELA
       NON-SPINPOLARIZED CALCULATION
:IFFT  : FFT-parameters:   90   90   90 Factor: 2.00


   CONVERGENCE PARAMETER FOR PSEUDOCHARGE: NCON=  9
   MAXIMAL VALUE OF RMT(JATOM)*ABSK(NKK) : RK  =29.05063


:VKCOUL :  VK-COUL convergence: 0.477E-07
       ATOMNUMBER=  1 Fe1        VCOUL-ZERO =  0.63169E+00
       ATOMNUMBER=  2 Fe2        VCOUL-ZERO =  0.63169E+00
       ATOMNUMBER=  3 Rh1        VCOUL-ZERO =  0.60086E+00
:FIT001: LUSE= 13 SIGMA OF V-XC FIT FOR ATOM  1  0.5084095E-02
:FIT001: LUSE= 13 SIGMA OF V-XC FIT FOR ATOM  1  0.5084095E-02
:FIT002: LUSE= 13 SIGMA OF V-XC FIT FOR ATOM  2  0.5084095E-02
:FIT002: LUSE= 13 SIGMA OF V-XC FIT FOR ATOM  2  0.5084095E-02
:FIT003: LUSE= 13 SIGMA OF V-XC FIT FOR ATOM  3  0.1207656E-02
:FIT003: LUSE= 13 SIGMA OF V-XC FIT FOR ATOM  3  0.1207656E-02
:DEN  : DENSITY INTEGRAL  =         -9883.22908173   (Ry)
       ELS_POTENTIAL_AT Z=0 and Z=0.5:  -0.21302  -0.21302
       ELS_POTENTIAL_AT Y=0 and Y=0.5:   0.00000   0.00000
:VZERO:v0,v0c,v0x  -0.83889  -0.21302  -0.62587 v5,v5c,v5x  -0.83889  -0.21302  -0.62587
:VZERY:v0,v0c,v0x  -0.81789   0.00000  -0.81789 v5,v5c,v5x  -0.81789   0.00000  -0.81789
:VZERX:v0,v0c,v0x  -0.81789   0.00000  -0.81789 v5,v5c,v5x  -0.81789   0.00000  -0.81789
:LMAX-WF:   10   Non-Spherical LMAX:   4

          ATOMIC SPHERE DEPENDENT PARAMETERS FOR ATOM  Fe1       
:e__0001: OVERALL ENERGY PARAMETER IS    0.5000
          OVERALL BASIS SET ON ATOM IS LAPW
:E1_0001: E( 1)=    0.5000
             APW+lo
:E1_0001: E( 1)=   -3.1089   E(BOTTOM)=   -3.142   E(TOP)=   -3.076  1  2   185
             LOCAL ORBITAL
:E2_0001: E( 2)=    0.6678   E(BOTTOM)=    0.419   E(TOP)=    0.917  0  1   130
             APW+lo
:E0_0001: E( 0)=    0.5000
             APW+lo

          ATOMIC SPHERE DEPENDENT PARAMETERS FOR ATOM  Fe2       
:e__0002: OVERALL ENERGY PARAMETER IS    0.5000
          OVERALL BASIS SET ON ATOM IS LAPW
:E1_0002: E( 1)=    0.5000
             APW+lo
:E1_0002: E( 1)=   -3.1089   E(BOTTOM)=   -3.142   E(TOP)=   -3.076  1  2   166
             LOCAL ORBITAL
:E2_0002: E( 2)=    0.6678   E(BOTTOM)=    0.419   E(TOP)=    0.917  0  1   130
             APW+lo
:E0_0002: E( 0)=    0.5000
             APW+lo

          ATOMIC SPHERE DEPENDENT PARAMETERS FOR ATOM  Rh1       
:e__0003: OVERALL ENERGY PARAMETER IS    0.5000
          OVERALL BASIS SET ON ATOM IS LAPW
:E0_0003: E( 0)=    0.5000
             APW+lo
:E0_0003: E( 0)=   -4.9587   E(BOTTOM)=   -4.992   E(TOP)=   -4.925  3  4   176
             LOCAL ORBITAL
:E1_0003: E( 1)=    0.5000
             APW+lo
:E1_0003: E( 1)=   -2.6237   E(BOTTOM)=   -2.723   E(TOP)=   -2.524  2  3   163
             LOCAL ORBITAL
:E2_0003: E( 2)=    0.5000   E(BOTTOM)=    0.179   E(TOP)= -200.000  1 -1    93
             APW+lo

       K=   0.00000   0.00000   0.00000            1
:RKM  : MATRIX SIZE   187LOs:  50  RKM= 6.64  WEIGHT= 1.00  PGR:    
       EIGENVALUES ARE:
:EIG00001:      -4.9534881   -4.9511267   -3.1027825   -3.1027825   -3.1027825
:EIG00006:      -3.1009066   -3.1009066   -3.1009066   -2.6066149   -2.6066149
:EIG00011:      -2.6066149   -2.5988454   -2.5988454   -2.5988454    0.1050736
:EIG00016:       0.3700222    0.3700222    0.4359180    0.4359180    0.4359180
:EIG00021:       0.5862107    0.5862107    0.5862107    0.6060321    0.6060321
:EIG00026:       0.6060321    0.7553182    0.7553182    0.7833267    0.7833267
:EIG00031:       0.7874542    0.7874542    0.8461845    0.8461845    0.8461845
:EIG00036:       1.2967620    1.3647892    1.3647892    1.3647892    1.3655995
:EIG00041:       1.3655995    1.3655995    1.4754879    1.4754879    1.4754879
:EIG00046:       1.5249955    2.0365174    2.0365174    2.1087180    2.1869285
 
:EIG00051:       2.1869285    2.1869285
       ********************************************************

:KPT   :      NUMBER OF K-POINTS:    47
:GAP (global)   :    0.0    Ry =     0.0   eV (metal)
         Bandranges (emin - emax) and occupancy:
:BAN00024:  24    0.528765    0.657611  2.00000000
:BAN00025:  25    0.528765    0.684222  2.00000000
:BAN00026:  26    0.528765    0.697756  2.00000000
:BAN00027:  27    0.667101    0.756176  2.00000000
:BAN00028:  28    0.691450    0.769811  2.00000000
:BAN00029:  29    0.706324    0.783327  1.94057223
:BAN00030:  30    0.723454    0.783327  1.89530154
:BAN00031:  31    0.747249    0.795243  1.57365180
:BAN00032:  32    0.755193    0.803427  0.58031253
:BAN00033:  33    0.771574    0.846184  0.00997607
:BAN00034:  34    0.778656    0.846184  0.00018583
:BAN00035:  35    0.792758    0.864167  0.00000000
:BAN00036:  36    0.820161    1.296762  0.00000000
:BAN00037:  37    0.860968    1.364789  0.00000000
:BAN00038:  38    0.866578    1.364789  0.00000000
:BAN00039:  39    1.304732    1.490317  0.00000000
        Energy to separate low and high energystates:    0.05507


:NOE  : NUMBER OF ELECTRONS          =   62.000

:FER  : F E R M I - ENERGY(TETRAH.M.)=   0.7726402956
:GMA  : POTENTIAL AND CHARGE CUT-OFF  12.00 Ry**.5

:POS001: ATOM    1 X,Y,Z = 0.00000 0.00000 0.00000  MULT= 1  ZZ= 26.000  Fe1       

       LMMAX  5
       LM=   0 0  4 0  4 4  6 0  6 4

:CHA001: TOTAL VALENCE CHARGE INSIDE SPHERE   1 =  13.3044    (RMT=  2.4300 )
:PCS001: PARTIAL CHARGES SPHERE =  1 S,P,D,F,      D-EG,D-T2G 
:QTL001: 0.4772 6.5349 6.2187 0.0548 0.0000 0.0000 0.0000 2.4382 3.7804 0.0000 0.0000 0.0000
        Q-s-low E-s-low   Q-p-low E-p-low   Q-d-low E-d-low   Q-f-low E-f-low
:EPL001:  0.0011 -2.7110    5.9899 -3.1016    0.0028 -2.7308    0.0012 -2.7482
        Q-s-hi  E-s-hi    Q-p-hi  E-p-hi    Q-d-hi  E-d-hi    Q-f-hi  E-f-hi 
:EPH001:  0.4761  0.3486    0.5450  0.5063    6.2158  0.6408    0.0536  0.5859

:POS002: ATOM    2 X,Y,Z = 0.50000 0.00000 0.00000  MULT= 1  ZZ= 26.000  Fe2       

       LMMAX  5
       LM=   0 0  4 0  4 4  6 0  6 4

:CHA002: TOTAL VALENCE CHARGE INSIDE SPHERE   2 =  13.3044    (RMT=  2.4300 )
:PCS002: PARTIAL CHARGES SPHERE =  2 S,P,D,F,      D-EG,D-T2G 
:QTL002: 0.4772 6.5349 6.2187 0.0548 0.0000 0.0000 0.0000 2.4382 3.7804 0.0000 0.0000 0.0000
        Q-s-low E-s-low   Q-p-low E-p-low   Q-d-low E-d-low   Q-f-low E-f-low
:EPL002:  0.0011 -2.7110    5.9899 -3.1016    0.0028 -2.7308    0.0012 -2.7482
        Q-s-hi  E-s-hi    Q-p-hi  E-p-hi    Q-d-hi  E-d-hi    Q-f-hi  E-f-hi 
:EPH002:  0.4761  0.3486    0.5450  0.5063    6.2158  0.6408    0.0536  0.5859

:POS003: ATOM    3 X,Y,Z = 0.25000 0.25000 0.25000  MULT= 2  ZZ= 45.000  Rh1       

       LMMAX  6
       LM=   0 0  4 0  4 4  6 0  6 4 -3 2

:CHA003: TOTAL VALENCE CHARGE INSIDE SPHERE   3 =  15.1910    (RMT=  2.4300 )
:PCS003: PARTIAL CHARGES SPHERE =  3 S,P,D,F,      D-EG,D-T2G 
:QTL003: 2.3736 6.3558 6.4016 0.0478 0.0000 0.0000 0.0000 2.4425 3.9591 0.0000 0.0000 0.0000
        Q-s-low E-s-low   Q-p-low E-p-low   Q-d-low E-d-low   Q-f-low E-f-low
:EPL003:  1.9975 -4.9519    5.9578 -2.6034    0.0008 -3.0431    0.0004 -3.0412
        Q-s-hi  E-s-hi    Q-p-hi  E-p-hi    Q-d-hi  E-d-hi    Q-f-hi  E-f-hi 
:EPH003:  0.3761  0.3678    0.3980  0.5327    6.4008  0.5547    0.0474  0.6262

:CHA  : TOTAL VALENCE CHARGE INSIDE UNIT CELL =      62.000000

:SUM  : SUM OF EIGENVALUES =         -69.082283926


        1.ATOM      Fe1                   5 CORE STATES
:1S 001: 1S                -512.957644496 Ry
:2S 001: 2S                 -58.866104879 Ry
:2PP001: 2P*                -50.569543273 Ry
:2P 001: 2P                 -49.652047270 Ry
:3S 001: 3S                  -5.588481119 Ry

        2.ATOM      Fe2                   5 CORE STATES
:1S 002: 1S                -512.957644488 Ry
:2S 002: 2S                 -58.866104872 Ry
:2PP002: 2P*                -50.569543266 Ry
:2P 002: 2P                 -49.652047263 Ry
:3S 002: 3S                  -5.588481114 Ry

        3.ATOM      Rh1                   9 CORE STATES
:1S 003: 1S               -1691.279039022 Ry
:2S 003: 2S                -244.170379118 Ry
:2PP003: 2P*               -225.980334907 Ry
:2P 003: 2P                -215.351063757 Ry
:3S 003: 3S                 -42.708394687 Ry
:3PP003: 3P*                -35.590272713 Ry
:3P 003: 3P                 -33.761818644 Ry
:3DD003: 3D*                -21.163597228 Ry
:3D 003: 3D                 -20.803025872 Ry
:CINT001 Core Integral Atom   1   11.999200
:CINT002 Core Integral Atom   2   11.999200
:CINT003 Core Integral Atom   3   28.000000

       DENSITY AT NUCLEUS
        JATOM        VALENCE       SEMI-CORE          CORE           TOTAL
:RTO001:   1        7.046846        0.000000    15301.630054    15308.676900
:RTO002:   2        7.046846        0.000000    15301.630054    15308.676900
:RTO003:   3      537.754184        0.000000   154797.127786   155334.881970
     
       CHARGES OF NEW CHARGE DENSITY
:NTO   : INTERSTITIAL CHARGE =     5.008963
:NPC   : PW Pseudocharge     =    12.004131
:NTO001: CHARGE SPHERE  1    =    25.303641
:NTO002: CHARGE SPHERE  2    =    25.303641
:NTO003: CHARGE SPHERE  3    =    43.191047

:NEC01: NUCLEAR AND ELECTRONIC CHARGE    142.00000   141.99834
     
       CHARGES OF OLD CHARGE DENSITY
:OTO   : INTERSTITIAL CHARGE =     3.832542
:OPC   : PW Pseudocharge     =    13.899478
:OTO001: CHARGE SPHERE  1    =    25.260626
:OTO002: CHARGE SPHERE  2    =    25.260626
:OTO003: CHARGE SPHERE  3    =    43.823104

:NEC02: NUCLEAR AND ELECTRONIC CHARGE    142.00000   142.00000
     
       CONVERGENCE TEST
:DTO001: DIFFERENCE IN SPHERE  1 =  0.5204427
:DTO002: DIFFERENCE IN SPHERE  2 =  0.5204428
:DTO003: DIFFERENCE IN SPHERE  3 =  0.7393857

:DIS  :  CHARGE DISTANCE       ( 0.7393857 for atom    3 spin 1)      0.6299142
 PW Mixed is           49
 
******************************************************
* MULTISECANT MIXING VER9 RELEASE 10.4.0              *
* Slow Mode, cautious                                *
* Fixed density scale                                *
* Regularization       1.000E-04                     *
* Step Trust Radius    0.75000                       *
* Trust Upper Limit    2.000E+00                     *
* Max Number of Memory Steps   12                    *
******************************************************
 
:PWTMP   1.1765E+02  4.5917E+02  3.5807E+02
:PLANE:  PW TOTAL      2.0498 DISTAN   5.25E-01  2.56E+01 %
:CHARG:  CLM/ATOM    299.8791 DISTAN   4.31E-01  1.44E-01 %
 
Step History
        DMIX         DMIXT        Red     Pred      Trust     Lambda    MagRel    MagAbs     Beta
  1   3.5000E-02   3.5000E-02 -1.00E+00  1.00E+00 -1.00E+01  1.00E+00  3.50E-02  3.50E-02  1.00E+00
  2   2.5000E-02   2.5000E-02 -1.00E+00  1.00E+00 -1.00E+01  1.00E+00  2.50E-02  5.69E-02  1.00E+00
:JACOBIANS    4.794E-01   2.594E-03
  
:TRUST:  Step 3.71E-02  Charge 7.50E-02 (e) CTO  2.50E-01 (e) PW  3.50E-01 (e)
:DIRM :  MEMORY  1/12 SCALE   1.000
:MIX  :   PRATT  REGULARIZATION:  1.00E-04 GREED: 0.03714  Expand 1.49  0.0371                
     
       CHARGES OF MIXED CHARGE DENSITY
:CTO   : INTERSTITIAL CHARGE =     3.843668
:CPC   : PW Pseudocharge     =    12.147902
:CTO001: CHARGE SPHERE  1    =    25.261943
:CTO002: CHARGE SPHERE  2    =    25.261943
:CTO003: CHARGE SPHERE  3    =    43.816223

:NEC03: NUCLEAR AND ELECTRONIC CHARGE    142.00000   142.00000

PW CHANGE     H    K    L      Current       Change    Residue
:PTO001:      0    0    0  4.46604122E-02 -4.861E-03 -1.992E-03
:PTO003:      0    0   -2 -2.23339074E-02  6.711E-03  1.229E-02
:PTO004:      0   -2   -2  7.83445937E-03 -3.358E-02 -3.764E-02
:PTO006:     -2   -2   -2  2.48141003E-03  4.238E-03  1.840E-03
:PTO007:      0    0   -4 -1.89149454E-02 -8.754E-03 -4.927E-04
:PTO009:      0   -2   -4  1.77500801E-02  4.956E-03 -7.258E-03
:PTO010:     -2   -2   -4 -5.60352956E-02 -1.596E-02  2.357E-02
:PTO013:      0   -4   -4 -1.35732565E-02 -2.792E-03  1.042E-02
:PTO015:     -2   -4   -4  3.78946071E-03 -6.306E-04 -4.184E-03
:PTO016:      0    0   -6  9.58577127E-04 -1.547E-04 -8.120E-04
:PTO017:      0   -2   -6 -7.63284024E-03 -5.987E-04  8.186E-03
:PTO019:     -2   -2   -6 -3.98156469E-04 -1.124E-03 -9.383E-04

:ENE  : ********** TOTAL ENERGY IN Ry =       -24232.21666809

 Flat Integration
 New Mode for Coulomb Integral
 Consistent 3/8+Simpson combinations
 Extension of core to zero
 LDM version in phi
 Fifth-order quadrature in outwin


            ---------
:ITE003:  3. ITERATION
            ---------

:NATO :    3 INDEPENDENT AND    4 TOTAL ATOMS IN UNITCELL
       SUBSTANCE: FeRh                                                        

       LATTICE                      = F   
:POT  : POTENTIAL OPTION EX_PBE EC_PBE VX_PBE VC_PBE
:LAT  : LATTICE CONSTANTS= 11.27222 11.27222 11.27222    1.571    1.571    1.571
:VOL  : UNIT CELL VOLUME =     358.07036
       MODE OF CALCULATION IS       = RELA
       NON-SPINPOLARIZED CALCULATION
:IFFT  : FFT-parameters:   90   90   90 Factor: 2.00


   CONVERGENCE PARAMETER FOR PSEUDOCHARGE: NCON=  9
   MAXIMAL VALUE OF RMT(JATOM)*ABSK(NKK) : RK  =29.05063


:VKCOUL :  VK-COUL convergence: 0.539E-07
       ATOMNUMBER=  1 Fe1        VCOUL-ZERO =  0.62249E+00
       ATOMNUMBER=  2 Fe2        VCOUL-ZERO =  0.62249E+00
       ATOMNUMBER=  3 Rh1        VCOUL-ZERO =  0.59088E+00
:FIT001: LUSE= 13 SIGMA OF V-XC FIT FOR ATOM  1  0.5018790E-02
:FIT001: LUSE= 13 SIGMA OF V-XC FIT FOR ATOM  1  0.5018790E-02
:FIT002: LUSE= 13 SIGMA OF V-XC FIT FOR ATOM  2  0.5018790E-02
:FIT002: LUSE= 13 SIGMA OF V-XC FIT FOR ATOM  2  0.5018790E-02
:FIT003: LUSE= 13 SIGMA OF V-XC FIT FOR ATOM  3  0.1167185E-02
:FIT003: LUSE= 13 SIGMA OF V-XC FIT FOR ATOM  3  0.1167185E-02
:DEN  : DENSITY INTEGRAL  =         -9880.95103292   (Ry)
       ELS_POTENTIAL_AT Z=0 and Z=0.5:  -0.20395  -0.20395
       ELS_POTENTIAL_AT Y=0 and Y=0.5:   0.00000   0.00000
:VZERO:v0,v0c,v0x  -0.72057  -0.20395  -0.51662 v5,v5c,v5x  -0.72057  -0.20395  -0.51662
:VZERY:v0,v0c,v0x  -0.78587   0.00000  -0.78587 v5,v5c,v5x  -0.78587   0.00000  -0.78587
:VZERX:v0,v0c,v0x  -0.78587   0.00000  -0.78587 v5,v5c,v5x  -0.78587   0.00000  -0.78587
:LMAX-WF:   10   Non-Spherical LMAX:   4

          ATOMIC SPHERE DEPENDENT PARAMETERS FOR ATOM  Fe1       
:e__0001: OVERALL ENERGY PARAMETER IS    0.5484
          OVERALL BASIS SET ON ATOM IS LAPW
:E1_0001: E( 1)=    0.5484
             APW+lo
:E1_0001: E( 1)=   -3.1205   E(BOTTOM)=   -3.154   E(TOP)=   -3.087  1  2   182
             LOCAL ORBITAL
:E2_0001: E( 2)=    0.6567   E(BOTTOM)=    0.408   E(TOP)=    0.905  0  1   130
             APW+lo
:E0_0001: E( 0)=    0.5484
             APW+lo

          ATOMIC SPHERE DEPENDENT PARAMETERS FOR ATOM  Fe2       
:e__0002: OVERALL ENERGY PARAMETER IS    0.5484
          OVERALL BASIS SET ON ATOM IS LAPW
:E1_0002: E( 1)=    0.5484
             APW+lo
:E1_0002: E( 1)=   -3.1205   E(BOTTOM)=   -3.154   E(TOP)=   -3.087  1  2   163
             LOCAL ORBITAL
:E2_0002: E( 2)=    0.6567   E(BOTTOM)=    0.408   E(TOP)=    0.905  0  1   130
             APW+lo
:E0_0002: E( 0)=    0.5484
             APW+lo

          ATOMIC SPHERE DEPENDENT PARAMETERS FOR ATOM  Rh1       
:e__0003: OVERALL ENERGY PARAMETER IS    0.5484
          OVERALL BASIS SET ON ATOM IS LAPW
:E0_0003: E( 0)=    0.5484
             APW+lo
:E0_0003: E( 0)=   -4.9753   E(BOTTOM)=   -5.009   E(TOP)=   -4.942  3  4   168
             LOCAL ORBITAL
:E1_0003: E( 1)=    0.5484
             APW+lo
:E1_0003: E( 1)=   -2.6398   E(BOTTOM)=   -2.739   E(TOP)=   -2.541  2  3   169
             LOCAL ORBITAL
:E2_0003: E( 2)=    0.5484   E(BOTTOM)=    0.165   E(TOP)= -200.000  1 -1    93
             APW+lo

       K=   0.00000   0.00000   0.00000            1
:RKM  : MATRIX SIZE   187LOs:  50  RKM= 6.64  WEIGHT= 1.00  PGR:    
       EIGENVALUES ARE:
:EIG00001:      -4.9701604   -4.9678100   -3.1144050   -3.1144050   -3.1144050
:EIG00006:      -3.1125519   -3.1125519   -3.1125519   -2.6226971   -2.6226971
:EIG00011:      -2.6226971   -2.6149672   -2.6149672   -2.6149672    0.0950206
:EIG00016:       0.3580385    0.3580385    0.4234404    0.4234404    0.4234404
:EIG00021:       0.5753599    0.5753599    0.5753599    0.5931673    0.5931673
:EIG00026:       0.5931673    0.7430645    0.7430645    0.7720508    0.7720508
:EIG00031:       0.7725840    0.7725840    0.8332701    0.8332701    0.8332701
:EIG00036:       1.2865946    1.3539019    1.3539019    1.3539019    1.3552218
:EIG00041:       1.3552218    1.3552218    1.4615513    1.4615513    1.4615513
:EIG00046:       1.5133030    2.0216702    2.0216702    2.0971826    2.1765782
 
:EIG00051:       2.1765782    2.1765782
       ********************************************************

:KPT   :      NUMBER OF K-POINTS:    47
:GAP (global)   :    0.0    Ry =     0.0   eV (metal)
         Bandranges (emin - emax) and occupancy:
:BAN00024:  24    0.516240    0.646489  2.00000000
:BAN00025:  25    0.516627    0.673123  2.00000000
:BAN00026:  26    0.516627    0.686413  2.00000000
:BAN00027:  27    0.655322    0.743854  2.00000000
:BAN00028:  28    0.680612    0.756048  2.00000000
:BAN00029:  29    0.695757    0.772051  1.95049696
:BAN00030:  30    0.711415    0.772051  1.89677051
:BAN00031:  31    0.735428    0.783104  1.56636311
:BAN00032:  32    0.743454    0.790463  0.57652376
:BAN00033:  33    0.758972    0.833270  0.00967759
:BAN00034:  34    0.767388    0.833270  0.00016808
:BAN00035:  35    0.780237    0.851257  0.00000000
:BAN00036:  36    0.807715    1.286595  0.00000000
:BAN00037:  37    0.847568    1.353902  0.00000000
:BAN00038:  38    0.852984    1.353902  0.00000000
:BAN00039:  39    1.293911    1.477920  0.00000000
        Energy to separate low and high energystates:    0.04502


:NOE  : NUMBER OF ELECTRONS          =   62.000

:FER  : F E R M I - ENERGY(TETRAH.M.)=   0.7602257119
:GMA  : POTENTIAL AND CHARGE CUT-OFF  12.00 Ry**.5

:POS001: ATOM    1 X,Y,Z = 0.00000 0.00000 0.00000  MULT= 1  ZZ= 26.000  Fe1       

       LMMAX  5
       LM=   0 0  4 0  4 4  6 0  6 4

:CHA001: TOTAL VALENCE CHARGE INSIDE SPHERE   1 =  13.2760    (RMT=  2.4300 )
:PCS001: PARTIAL CHARGES SPHERE =  1 S,P,D,F,      D-EG,D-T2G 
:QTL001: 0.4759 6.5314 6.1952 0.0545 0.0000 0.0000 0.0000 2.4244 3.7708 0.0000 0.0000 0.0000
        Q-s-low E-s-low   Q-p-low E-p-low   Q-d-low E-d-low   Q-f-low E-f-low
:EPL001:  0.0011 -2.7273    5.9899 -3.1132    0.0028 -2.7471    0.0012 -2.7646
        Q-s-hi  E-s-hi    Q-p-hi  E-p-hi    Q-d-hi  E-d-hi    Q-f-hi  E-f-hi 
:EPH001:  0.4748  0.3378    0.5415  0.4945    6.1924  0.6294    0.0533  0.5729

:POS002: ATOM    2 X,Y,Z = 0.50000 0.00000 0.00000  MULT= 1  ZZ= 26.000  Fe2       

       LMMAX  5
       LM=   0 0  4 0  4 4  6 0  6 4

:CHA002: TOTAL VALENCE CHARGE INSIDE SPHERE   2 =  13.2760    (RMT=  2.4300 )
:PCS002: PARTIAL CHARGES SPHERE =  2 S,P,D,F,      D-EG,D-T2G 
:QTL002: 0.4759 6.5314 6.1952 0.0545 0.0000 0.0000 0.0000 2.4244 3.7708 0.0000 0.0000 0.0000
        Q-s-low E-s-low   Q-p-low E-p-low   Q-d-low E-d-low   Q-f-low E-f-low
:EPL002:  0.0011 -2.7273    5.9899 -3.1132    0.0028 -2.7471    0.0012 -2.7646
        Q-s-hi  E-s-hi    Q-p-hi  E-p-hi    Q-d-hi  E-d-hi    Q-f-hi  E-f-hi 
:EPH002:  0.4748  0.3378    0.5415  0.4945    6.1924  0.6294    0.0533  0.5729

:POS003: ATOM    3 X,Y,Z = 0.25000 0.25000 0.25000  MULT= 2  ZZ= 45.000  Rh1       

       LMMAX  6
       LM=   0 0  4 0  4 4  6 0  6 4 -3 2

:CHA003: TOTAL VALENCE CHARGE INSIDE SPHERE   3 =  15.2288    (RMT=  2.4300 )
:PCS003: PARTIAL CHARGES SPHERE =  3 S,P,D,F,      D-EG,D-T2G 
:QTL003: 2.3735 6.3546 6.4410 0.0476 0.0000 0.0000 0.0000 2.4621 3.9788 0.0000 0.0000 0.0000
        Q-s-low E-s-low   Q-p-low E-p-low   Q-d-low E-d-low   Q-f-low E-f-low
:EPL003:  1.9975 -4.9686    5.9580 -2.6195    0.0008 -3.0557    0.0004 -3.0539
        Q-s-hi  E-s-hi    Q-p-hi  E-p-hi    Q-d-hi  E-d-hi    Q-f-hi  E-f-hi 
:EPH003:  0.3760  0.3572    0.3965  0.5217    6.4401  0.5419    0.0472  0.6147

:CHA  : TOTAL VALENCE CHARGE INSIDE UNIT CELL =      62.000000

:SUM  : SUM OF EIGENVALUES =         -69.889878286


        1.ATOM      Fe1                   5 CORE STATES
:1S 001: 1S                -512.971458749 Ry
:2S 001: 2S                 -58.879737362 Ry
:2PP001: 2P*                -50.583228437 Ry
:2P 001: 2P                 -49.665727083 Ry
:3S 001: 3S                  -5.600263774 Ry

        2.ATOM      Fe2                   5 CORE STATES
:1S 002: 1S                -512.971458738 Ry
:2S 002: 2S                 -58.879737353 Ry
:2PP002: 2P*                -50.583228427 Ry
:2P 002: 2P                 -49.665727074 Ry
:3S 002: 3S                  -5.600263768 Ry

        3.ATOM      Rh1                   9 CORE STATES
:1S 003: 1S               -1691.300612187 Ry
:2S 003: 2S                -244.191607373 Ry
:2PP003: 2P*               -226.001664283 Ry
:2P 003: 2P                -215.372370704 Ry
:3S 003: 3S                 -42.728104452 Ry
:3PP003: 3P*                -35.610024224 Ry
:3P 003: 3P                 -33.781514804 Ry
:3DD003: 3D*                -21.183458151 Ry
:3D 003: 3D                 -20.822867530 Ry
:CINT001 Core Integral Atom   1   11.999201
:CINT002 Core Integral Atom   2   11.999201
:CINT003 Core Integral Atom   3   28.000000

       DENSITY AT NUCLEUS
        JATOM        VALENCE       SEMI-CORE          CORE           TOTAL
:RTO001:   1        7.017315        0.000000    15301.670504    15308.687819
:RTO002:   2        7.017315        0.000000    15301.670504    15308.687819
:RTO003:   3      537.909550        0.000000   154797.235824   155335.145374
     
       CHARGES OF NEW CHARGE DENSITY
:NTO   : INTERSTITIAL CHARGE =     4.990304
:NPC   : PW Pseudocharge     =    11.985540
:NTO001: CHARGE SPHERE  1    =    25.275232
:NTO002: CHARGE SPHERE  2    =    25.275231
:NTO003: CHARGE SPHERE  3    =    43.228786

:NEC01: NUCLEAR AND ELECTRONIC CHARGE    142.00000   141.99834
     
       CHARGES OF OLD CHARGE DENSITY
:OTO   : INTERSTITIAL CHARGE =     3.843668
:OPC   : PW Pseudocharge     =    12.147902
:OTO001: CHARGE SPHERE  1    =    25.261943
:OTO002: CHARGE SPHERE  2    =    25.261943
:OTO003: CHARGE SPHERE  3    =    43.816223

:NEC02: NUCLEAR AND ELECTRONIC CHARGE    142.00000   142.00000
     
       CONVERGENCE TEST
:DTO001: DIFFERENCE IN SPHERE  1 =  0.5325545
:DTO002: DIFFERENCE IN SPHERE  2 =  0.5325547
:DTO003: DIFFERENCE IN SPHERE  3 =  0.6926915

:DIS  :  CHARGE DISTANCE       ( 0.6926915 for atom    3 spin 1)      0.6126231
 PW Mixed is           49
 
******************************************************
* MULTISECANT MIXING VER9 RELEASE 10.4.0              *
* Standard Mode with controls                        *
* Fixed density scale                                *
* Regularization       1.000E-04                     *
* Trust Upper Limit    5.000E+00                     *
* Max Number of Memory Steps    8                    *
******************************************************
 
:PWTMP   1.1765E+02  4.5917E+02  3.5807E+02
:PLANE:  PW TOTAL      1.8479 DISTAN   4.17E-01  2.25E+01 %
:CHARG:  CLM/ATOM    299.8784 DISTAN   4.17E-01  1.39E-01 %
 
Step History
        DMIX         DMIXT        Red     Pred      Trust     Lambda    MagRel    MagAbs     Beta
  1   3.5000E-02   3.5000E-02 -1.00E+00  1.00E+00 -1.00E+01  1.00E+00  3.50E-02  3.50E-02  1.00E+00
  2   2.5000E-02   2.5000E-02  6.14E-01  1.00E+00 -1.00E+01  1.00E+00  2.50E-02  5.69E-02  1.00E+00
  3   3.7142E-02   3.7142E-02 -1.00E+00  1.00E+00 -1.00E+01  1.00E+00  3.71E-02  5.19E-02  1.00E+00
:JACOBIANS    7.360E-01   1.980E-03
  
:NORMS:  1/Froebius, Min, Max, Used   0.9847E+00  0.4977E+00  0.9954E+00  0.9849E+00
:INFO :  Number of Memory Steps    2 Skipping    0
:INFO :  SLambda=    0.1400839927  Max    0.1400839927
:PREDicted Charge, CTotal, PW Trust    5.965E-03   9.646E-03   4.958E-01
:PREDicted DMix, Beta, BLim   6.4186E-02  8.3347E-01  3.6661E-01

Eigenvalues, unscaled except for SY+YY
   #     SY Real        SY Imag          SS             YY         SY+YY Real      SY+YY Imag
   1   6.550316E-15   0.000000E+00   1.939311E+00   1.999235E+00   7.672608E-04   0.000000E+00
   2   1.945767E+00   0.000000E+00   1.110223E-16   7.651707E-04   2.271803E+00   0.000000E+00
 
:INFO :  Singular value  2.272E+00 Weight  1.000E+00 Projection  1.501E-02
:INFO :  Singular value  7.673E-04 Weight  9.364E-01 Projection -1.545E+01
:RANK :  ACTIVE   1.94/2  =  96.82 % ; YY RANK   1.94/2  =  96.80 %
 
:DLIM :  Beta Active  8.751E-01
:BLIM :  VZERO Control Off
:TRUST:  Step 2.50E-01  Charge 7.50E-02 (e) CTO  2.50E-01 (e) PW  3.85E-01 (e)
:DIRM :  MEMORY  2/8  SCALE   1.000 RED  0.94 PRED  1.00 NEXT  0.94 BETA  0.88
:TRAVE:  Charge 2.22E-02 (e) CTO  5.57E-02 (e) PW  9.35E-02 (e)
:DIRP :  |MSR1|= 7.325E-02 |PRATT|= 4.165E-01 ANGLE=  56.2 DEGREES
:DIRQ :  |MSR1|= 5.567E-02 |PRATT|= 1.251E+00 ANGLE=  20.6 DEGREES
:DIRT :  |MSR1|= 9.200E-02 |PRATT|= 1.318E+00 ANGLE=  47.3 DEGREES
:MIX  :   MSD1   REGULARIZATION:  2.00E-04 GREED: 0.04888  Newton 1.00  0.0698                
     
       CHARGES OF MIXED CHARGE DENSITY
:CTO   : INTERSTITIAL CHARGE =     3.899322
:CPC   : PW Pseudocharge     =    12.376761
:CTO001: CHARGE SPHERE  1    =    25.256309
:CTO002: CHARGE SPHERE  2    =    25.256309
:CTO003: CHARGE SPHERE  3    =    43.794030

:NEC03: NUCLEAR AND ELECTRONIC CHARGE    142.00000   142.00000

PW CHANGE     H    K    L      Current       Change    Residue
:PTO001:      0    0    0  4.54549848E-02  7.946E-04  2.765E-03
:PTO002:     -1   -1   -1 -6.72682309E-12 -6.726E-12  3.496E-10
:PTO003:      0    0   -2 -2.30032364E-02 -6.693E-04  5.423E-03
:PTO004:      0   -2   -2  1.21614110E-02  4.327E-03 -3.859E-03
:PTO005:     -1   -1   -3  4.78801019E-11  4.788E-11 -4.661E-11
:PTO006:     -2   -2   -2  1.80969538E-03 -6.717E-04 -2.370E-03
:PTO007:      0    0   -4 -1.73213528E-02  1.594E-03  8.271E-03
:PTO008:     -1   -3   -3 -4.55746399E-11 -4.557E-11 -4.705E-10
:PTO009:      0   -2   -4  1.65065594E-02 -1.244E-03 -1.207E-02
:PTO010:     -2   -2   -4 -5.19515488E-02  4.084E-03  3.948E-02
:PTO011:     -3   -3   -3  5.62469808E-12  5.625E-12 -1.048E-10
:PTO012:     -1   -1   -5 -1.57162089E-11 -1.572E-11  5.105E-11

:ENE  : ********** TOTAL ENERGY IN Ry =       -24232.20669076

 Flat Integration
 New Mode for Coulomb Integral
 Consistent 3/8+Simpson combinations
 Extension of core to zero
 LDM version in phi
 Fifth-order quadrature in outwin


            ---------
:ITE004:  4. ITERATION
            ---------

:NATO :    3 INDEPENDENT AND    4 TOTAL ATOMS IN UNITCELL
       SUBSTANCE: FeRh                                                        

       LATTICE                      = F   
:POT  : POTENTIAL OPTION EX_PBE EC_PBE VX_PBE VC_PBE
:LAT  : LATTICE CONSTANTS= 11.27222 11.27222 11.27222    1.571    1.571    1.571
:VOL  : UNIT CELL VOLUME =     358.07036
       MODE OF CALCULATION IS       = RELA
       NON-SPINPOLARIZED CALCULATION
:IFFT  : FFT-parameters:   90   90   90 Factor: 2.00


   CONVERGENCE PARAMETER FOR PSEUDOCHARGE: NCON=  9
   MAXIMAL VALUE OF RMT(JATOM)*ABSK(NKK) : RK  =29.05063


:VKCOUL :  VK-COUL convergence: 0.541E-07
       ATOMNUMBER=  1 Fe1        VCOUL-ZERO =  0.62729E+00
       ATOMNUMBER=  2 Fe2        VCOUL-ZERO =  0.62729E+00
       ATOMNUMBER=  3 Rh1        VCOUL-ZERO =  0.59404E+00
:FIT001: LUSE= 13 SIGMA OF V-XC FIT FOR ATOM  1  0.4715393E-02
:FIT001: LUSE= 13 SIGMA OF V-XC FIT FOR ATOM  1  0.4715393E-02
:FIT002: LUSE= 13 SIGMA OF V-XC FIT FOR ATOM  2  0.4715393E-02
:FIT002: LUSE= 13 SIGMA OF V-XC FIT FOR ATOM  2  0.4715393E-02
:FIT003: LUSE= 13 SIGMA OF V-XC FIT FOR ATOM  3  0.9532637E-03
:FIT003: LUSE= 13 SIGMA OF V-XC FIT FOR ATOM  3  0.9532637E-03
:DEN  : DENSITY INTEGRAL  =         -9877.95252697   (Ry)
       ELS_POTENTIAL_AT Z=0 and Z=0.5:  -0.20115  -0.20115
       ELS_POTENTIAL_AT Y=0 and Y=0.5:   0.00000   0.00000
:VZERO:v0,v0c,v0x  -0.73240  -0.20115  -0.53125 v5,v5c,v5x  -0.73240  -0.20115  -0.53125
:VZERY:v0,v0c,v0x  -0.79307   0.00000  -0.79307 v5,v5c,v5x  -0.79307   0.00000  -0.79307
:VZERX:v0,v0c,v0x  -0.79307   0.00000  -0.79307 v5,v5c,v5x  -0.79307   0.00000  -0.79307
:LMAX-WF:   10   Non-Spherical LMAX:   4

          ATOMIC SPHERE DEPENDENT PARAMETERS FOR ATOM  Fe1       
:e__0001: OVERALL ENERGY PARAMETER IS    0.5563
          OVERALL BASIS SET ON ATOM IS LAPW
:E1_0001: E( 1)=    0.5563
             APW+lo
:E1_0001: E( 1)=   -3.1401   E(BOTTOM)=   -3.173   E(TOP)=   -3.107  1  2   176
             LOCAL ORBITAL
:E2_0001: E( 2)=    0.6420   E(BOTTOM)=    0.397   E(TOP)=    0.887  0  1   122
             APW+lo
:E0_0001: E( 0)=    0.5563
             APW+lo

          ATOMIC SPHERE DEPENDENT PARAMETERS FOR ATOM  Fe2       
:e__0002: OVERALL ENERGY PARAMETER IS    0.5563
          OVERALL BASIS SET ON ATOM IS LAPW
:E1_0002: E( 1)=    0.5563
             APW+lo
:E1_0002: E( 1)=   -3.1401   E(BOTTOM)=   -3.173   E(TOP)=   -3.107  1  2   158
             LOCAL ORBITAL
:E2_0002: E( 2)=    0.6420   E(BOTTOM)=    0.397   E(TOP)=    0.887  0  1   124
             APW+lo
:E0_0002: E( 0)=    0.5563
             APW+lo

          ATOMIC SPHERE DEPENDENT PARAMETERS FOR ATOM  Rh1       
:e__0003: OVERALL ENERGY PARAMETER IS    0.5563
          OVERALL BASIS SET ON ATOM IS LAPW
:E0_0003: E( 0)=    0.5563
             APW+lo
:E0_0003: E( 0)=   -4.9913   E(BOTTOM)=   -5.024   E(TOP)=   -4.958  3  4   163
             LOCAL ORBITAL
:E1_0003: E( 1)=    0.5563
             APW+lo
:E1_0003: E( 1)=   -2.6541   E(BOTTOM)=   -2.752   E(TOP)=   -2.556  2  3   158
             LOCAL ORBITAL
:E2_0003: E( 2)=    0.5563   E(BOTTOM)=    0.158   E(TOP)= -200.000  1 -1    93
             APW+lo

       K=   0.00000   0.00000   0.00000            1
:RKM  : MATRIX SIZE   187LOs:  50  RKM= 6.64  WEIGHT= 1.00  PGR:    
       EIGENVALUES ARE:
:EIG00001:      -4.9861516   -4.9838265   -3.1340112   -3.1340112   -3.1340112
:EIG00006:      -3.1321988   -3.1321988   -3.1321988   -2.6371517   -2.6371517
:EIG00011:      -2.6371517   -2.6295256   -2.6295256   -2.6295256    0.0936453
:EIG00016:       0.3508928    0.3508928    0.4171575    0.4171575    0.4171575
:EIG00021:       0.5645360    0.5645360    0.5645360    0.5819442    0.5819442
:EIG00026:       0.5819442    0.7291787    0.7291787    0.7557341    0.7557341
:EIG00031:       0.7616536    0.7616536    0.8183769    0.8183769    0.8183769
:EIG00036:       1.2839518    1.3456149    1.3456149    1.3456149    1.3529386
:EIG00041:       1.3529386    1.3529386    1.4550490    1.4550490    1.4550490
:EIG00046:       1.5100227    2.0131759    2.0131759    2.0936359    2.1759623
 
:EIG00051:       2.1759623    2.1759623
       ********************************************************

:KPT   :      NUMBER OF K-POINTS:    47
:GAP (global)   :    0.0    Ry =     0.0   eV (metal)
         Bandranges (emin - emax) and occupancy:
:BAN00024:  24    0.506869    0.636854  2.00000000
:BAN00025:  25    0.507764    0.659148  2.00000000
:BAN00026:  26    0.507764    0.672727  2.00000000
:BAN00027:  27    0.644992    0.729877  2.00000000
:BAN00028:  28    0.670439    0.743773  2.00000000
:BAN00029:  29    0.687442    0.755734  1.93727666
:BAN00030:  30    0.698138    0.755734  1.89754819
:BAN00031:  31    0.721036    0.768405  1.57467158
:BAN00032:  32    0.728880    0.776597  0.58161894
:BAN00033:  33    0.744939    0.818377  0.00877432
:BAN00034:  34    0.752223    0.818377  0.00011032
:BAN00035:  35    0.766356    0.836011  0.00000000
:BAN00036:  36    0.794328    1.283952  0.00000000
:BAN00037:  37    0.838412    1.345615  0.00000000
:BAN00038:  38    0.840954    1.345615  0.00000000
:BAN00039:  39    1.290339    1.470975  0.00000000
        Energy to separate low and high energystates:    0.04365


:NOE  : NUMBER OF ELECTRONS          =   62.000

:FER  : F E R M I - ENERGY(TETRAH.M.)=   0.7460782606
:GMA  : POTENTIAL AND CHARGE CUT-OFF  12.00 Ry**.5

:POS001: ATOM    1 X,Y,Z = 0.00000 0.00000 0.00000  MULT= 1  ZZ= 26.000  Fe1       

       LMMAX  5
       LM=   0 0  4 0  4 4  6 0  6 4

:CHA001: TOTAL VALENCE CHARGE INSIDE SPHERE   1 =  13.3372    (RMT=  2.4300 )
:PCS001: PARTIAL CHARGES SPHERE =  1 S,P,D,F,      D-EG,D-T2G 
:QTL001: 0.4725 6.5214 6.2712 0.0534 0.0000 0.0000 0.0000 2.4652 3.8060 0.0000 0.0000 0.0000
        Q-s-low E-s-low   Q-p-low E-p-low   Q-d-low E-d-low   Q-f-low E-f-low
:EPL001:  0.0011 -2.7422    5.9901 -3.1329    0.0028 -2.7620    0.0012 -2.7795
        Q-s-hi  E-s-hi    Q-p-hi  E-p-hi    Q-d-hi  E-d-hi    Q-f-hi  E-f-hi 
:EPH001:  0.4714  0.3338    0.5313  0.4879    6.2684  0.6169    0.0522  0.5634

:POS002: ATOM    2 X,Y,Z = 0.50000 0.00000 0.00000  MULT= 1  ZZ= 26.000  Fe2       

       LMMAX  5
       LM=   0 0  4 0  4 4  6 0  6 4

:CHA002: TOTAL VALENCE CHARGE INSIDE SPHERE   2 =  13.3372    (RMT=  2.4300 )
:PCS002: PARTIAL CHARGES SPHERE =  2 S,P,D,F,      D-EG,D-T2G 
:QTL002: 0.4725 6.5214 6.2712 0.0534 0.0000 0.0000 0.0000 2.4652 3.8060 0.0000 0.0000 0.0000
        Q-s-low E-s-low   Q-p-low E-p-low   Q-d-low E-d-low   Q-f-low E-f-low
:EPL002:  0.0011 -2.7422    5.9901 -3.1329    0.0028 -2.7620    0.0012 -2.7795
        Q-s-hi  E-s-hi    Q-p-hi  E-p-hi    Q-d-hi  E-d-hi    Q-f-hi  E-f-hi 
:EPH002:  0.4714  0.3338    0.5313  0.4879    6.2684  0.6169    0.0522  0.5634

:POS003: ATOM    3 X,Y,Z = 0.25000 0.25000 0.25000  MULT= 2  ZZ= 45.000  Rh1       

       LMMAX  6
       LM=   0 0  4 0  4 4  6 0  6 4 -3 2

:CHA003: TOTAL VALENCE CHARGE INSIDE SPHERE   3 =  15.2047    (RMT=  2.4300 )
:PCS003: PARTIAL CHARGES SPHERE =  3 S,P,D,F,      D-EG,D-T2G 
:QTL003: 2.3704 6.3460 6.4300 0.0463 0.0000 0.0000 0.0000 2.4578 3.9721 0.0000 0.0000 0.0000
        Q-s-low E-s-low   Q-p-low E-p-low   Q-d-low E-d-low   Q-f-low E-f-low
:EPL003:  1.9975 -4.9846    5.9585 -2.6339    0.0008 -3.0746    0.0004 -3.0728
        Q-s-hi  E-s-hi    Q-p-hi  E-p-hi    Q-d-hi  E-d-hi    Q-f-hi  E-f-hi 
:EPH003:  0.3729  0.3521    0.3875  0.5138    6.4292  0.5325    0.0459  0.6028

:CHA  : TOTAL VALENCE CHARGE INSIDE UNIT CELL =      62.000000

:SUM  : SUM OF EIGENVALUES =         -70.679568282


        1.ATOM      Fe1                   5 CORE STATES
:1S 001: 1S                -513.009037810 Ry
:2S 001: 2S                 -58.915795579 Ry
:2PP001: 2P*                -50.619717583 Ry
:2P 001: 2P                 -49.702172867 Ry
:3S 001: 3S                  -5.621140986 Ry

        2.ATOM      Fe2                   5 CORE STATES
:1S 002: 1S                -513.009037840 Ry
:2S 002: 2S                 -58.915795611 Ry
:2PP002: 2P*                -50.619717615 Ry
:2P 002: 2P                 -49.702172899 Ry
:3S 002: 3S                  -5.621141009 Ry

        3.ATOM      Rh1                   9 CORE STATES
:1S 003: 1S               -1691.327501926 Ry
:2S 003: 2S                -244.217807004 Ry
:2PP003: 2P*               -226.028067486 Ry
:2P 003: 2P                -215.398727912 Ry
:3S 003: 3S                 -42.751067243 Ry
:3PP003: 3P*                -35.633073881 Ry
:3P 003: 3P                 -33.804446839 Ry
:3DD003: 3D*                -21.206742894 Ry
:3D 003: 3D                 -20.846111177 Ry
:CINT001 Core Integral Atom   1   11.999214
:CINT002 Core Integral Atom   2   11.999214
:CINT003 Core Integral Atom   3   28.000000

       DENSITY AT NUCLEUS
        JATOM        VALENCE       SEMI-CORE          CORE           TOTAL
:RTO001:   1        6.951816        0.000000    15302.011636    15308.963452
:RTO002:   2        6.951816        0.000000    15302.011636    15308.963452
:RTO003:   3      538.155132        0.000000   154797.469105   155335.624237
     
       CHARGES OF NEW CHARGE DENSITY
:NTO   : INTERSTITIAL CHARGE =     4.916282
:NPC   : PW Pseudocharge     =    11.856753
:NTO001: CHARGE SPHERE  1    =    25.336376
:NTO002: CHARGE SPHERE  2    =    25.336377
:NTO003: CHARGE SPHERE  3    =    43.204664

:NEC01: NUCLEAR AND ELECTRONIC CHARGE    142.00000   141.99836
     
       CHARGES OF OLD CHARGE DENSITY
:OTO   : INTERSTITIAL CHARGE =     3.899322
:OPC   : PW Pseudocharge     =    12.376761
:OTO001: CHARGE SPHERE  1    =    25.256309
:OTO002: CHARGE SPHERE  2    =    25.256309
:OTO003: CHARGE SPHERE  3    =    43.794030

:NEC02: NUCLEAR AND ELECTRONIC CHARGE    142.00000   142.00000
     
       CONVERGENCE TEST
:DTO001: DIFFERENCE IN SPHERE  1 =  0.3734771
:DTO002: DIFFERENCE IN SPHERE  2 =  0.3734757
:DTO003: DIFFERENCE IN SPHERE  3 =  0.6589140

:DIS  :  CHARGE DISTANCE       ( 0.6589140 for atom    3 spin 1)      0.5161952
 PW Mixed is           49
 
******************************************************
* MULTISECANT MIXING VER9 RELEASE 10.4.0              *
* Standard Mode with controls                        *
* Fixed density scale                                *
* Regularization       1.000E-04                     *
* Trust Upper Limit    5.000E+00                     *
* Max Number of Memory Steps    8                    *
******************************************************
 
:PWTMP   1.1765E+02  4.5917E+02  3.5807E+02
:PLANE:  PW TOTAL      1.8680 DISTAN   3.77E-01  2.02E+01 %
:CHARG:  CLM/ATOM    299.8759 DISTAN   3.63E-01  1.21E-01 %
 
Step History
        DMIX         DMIXT        Red     Pred      Trust     Lambda    MagRel    MagAbs     Beta
  1   3.5000E-02   3.5000E-02 -1.00E+00  1.00E+00 -1.00E+01  1.00E+00  3.50E-02  3.50E-02  1.00E+00
  2   2.5000E-02   2.5000E-02  6.14E-01  1.00E+00 -1.00E+01  1.00E+00  2.50E-02  5.69E-02  1.00E+00
  3   3.7142E-02   3.7142E-02  9.44E-01  1.00E+00 -1.00E+01  1.40E-01  3.71E-02  5.19E-02  1.00E+00
  4   4.8879E-02   4.8879E-02 -1.00E+00  9.40E-01  2.50E-01  1.00E+00  6.98E-02  9.20E-02  8.75E-01
:JACOBIANS    8.683E-01   1.130E-01
  
:NORMS:  1/Froebius, Min, Max, Used   0.7833E+00  0.4080E+00  0.9953E+00  0.9625E+00
:INFO :  Number of Memory Steps    3 Skipping    0
:INFO :  SLambda=    1.5396235103  Max    1.5396235103
:PREDicted Charge, CTotal, PW Trust    1.184E-01   2.933E-01   1.501E-01
:PREDicted DMix, Beta, BLim   2.2477E-01  2.2170E+00  4.4140E-01

Eigenvalues, unscaled except for SY+YY
   #     SY Real        SY Imag          SS             YY         SY+YY Real      SY+YY Imag
   1   1.787544E+00   0.000000E+00   1.772744E+00   1.913463E+00   4.634516E+00   0.000000E+00
   2   6.911220E-15   0.000000E+00   6.810675E-02   1.085840E+00   7.201100E-04   0.000000E+00
   3   2.399054E-01   0.000000E+00   3.239957E-17   6.973183E-04   1.486273E+00   0.000000E+00
 
:INFO :  Singular value  4.635E+00 Weight  1.000E+00 Projection -9.142E-02
:INFO :  Singular value  1.486E+00 Weight  1.000E+00 Projection -7.687E-01
:INFO :  Singular value  7.201E-04 Weight  9.341E-01 Projection  2.622E+01
:RANK :  ACTIVE   2.93/3  =  97.80 % ; YY RANK   2.93/3  =  97.67 %
 
:BLIM :  VZERO Control Off
:TRUST:  Step 3.75E-01  Charge 8.25E-02 (e) CTO  2.75E-01 (e) PW  3.85E-01 (e)
:DTRUS:  Lambda    3.174E+01 Increment    7.276E-12 Iterations   144 DMIX    9.441E-02
:INFOA:  Angle SubSpace to MSR1      5.71
:DIRM :  MEMORY  3/8  SCALE   1.000 RED  0.87 PRED  0.94 NEXT  0.57 
:INFO :  Limited by Atoms F by Step T

:TRAVE:  Charge 5.23E-02 (e) CTO  1.11E-01 (e) PW  5.03E-02 (e)
:DIRP :  |MSR1|= 6.683E-02 |PRATT|= 3.770E-01 ANGLE=   7.1 DEGREES
:DIRQ :  |MSR1|= 1.328E-01 |PRATT|= 1.088E+00 ANGLE=  28.2 DEGREES
:DIRT :  |MSR1|= 1.487E-01 |PRATT|= 1.151E+00 ANGLE=  27.1 DEGREES
:MIX  :   MSE1   REGULARIZATION:  1.91E-04 GREED: 0.12220  LMStep 0.56  0.1292 Charge         
     
       CHARGES OF MIXED CHARGE DENSITY
:CTO   : INTERSTITIAL CHARGE =     4.066281
:CPC   : PW Pseudocharge     =    12.231630
:CTO001: CHARGE SPHERE  1    =    25.255329
:CTO002: CHARGE SPHERE  2    =    25.255330
:CTO003: CHARGE SPHERE  3    =    43.711530

:NEC03: NUCLEAR AND ELECTRONIC CHARGE    142.00000   142.00000

PW CHANGE     H    K    L      Current       Change    Residue
:PTO001:      0    0    0  4.55159450E-02  6.096E-05  1.403E-03
:PTO002:     -1   -1   -1 -7.87844628E-10 -7.811E-10 -1.228E-09
:PTO003:      0    0   -2 -2.19499054E-02  1.053E-03  6.200E-03
:PTO004:      0   -2   -2  1.04807323E-02 -1.681E-03 -7.849E-03
:PTO005:     -1   -1   -3  2.67108728E-10  2.192E-10 -1.169E-10
:PTO006:     -2   -2   -2  1.65755743E-03 -1.521E-04 -1.621E-03
:PTO007:      0    0   -4 -1.60982449E-02  1.223E-03  6.787E-03
:PTO008:     -1   -3   -3  8.41108321E-10  8.867E-10  1.913E-09
:PTO009:      0   -2   -4  1.46572544E-02 -1.849E-03 -1.088E-02
:PTO010:     -2   -2   -4 -4.56770365E-02  6.275E-03  3.542E-02
:PTO011:     -3   -3   -3  2.43690120E-10  2.381E-10  3.359E-10
:PTO012:     -1   -1   -5 -1.58023457E-10 -1.423E-10 -7.440E-11

:ENE  : ********** TOTAL ENERGY IN Ry =       -24232.17499183

 Flat Integration
 New Mode for Coulomb Integral
 Consistent 3/8+Simpson combinations
 Extension of core to zero
 LDM version in phi
 Fifth-order quadrature in outwin


            ---------
:ITE005:  5. ITERATION
            ---------

:NATO :    3 INDEPENDENT AND    4 TOTAL ATOMS IN UNITCELL
       SUBSTANCE: FeRh                                                        

       LATTICE                      = F   
:POT  : POTENTIAL OPTION EX_PBE EC_PBE VX_PBE VC_PBE
:LAT  : LATTICE CONSTANTS= 11.27222 11.27222 11.27222    1.571    1.571    1.571
:VOL  : UNIT CELL VOLUME =     358.07036
       MODE OF CALCULATION IS       = RELA
       NON-SPINPOLARIZED CALCULATION
:IFFT  : FFT-parameters:   90   90   90 Factor: 2.00


   CONVERGENCE PARAMETER FOR PSEUDOCHARGE: NCON=  9
   MAXIMAL VALUE OF RMT(JATOM)*ABSK(NKK) : RK  =29.05063


:VKCOUL :  VK-COUL convergence: 0.583E-07
       ATOMNUMBER=  1 Fe1        VCOUL-ZERO =  0.63636E+00
       ATOMNUMBER=  2 Fe2        VCOUL-ZERO =  0.63636E+00
       ATOMNUMBER=  3 Rh1        VCOUL-ZERO =  0.59520E+00
:FIT001: LUSE= 13 SIGMA OF V-XC FIT FOR ATOM  1  0.3865957E-02
:FIT001: LUSE= 13 SIGMA OF V-XC FIT FOR ATOM  1  0.3865957E-02
:FIT002: LUSE= 13 SIGMA OF V-XC FIT FOR ATOM  2  0.3865957E-02
:FIT002: LUSE= 13 SIGMA OF V-XC FIT FOR ATOM  2  0.3865957E-02
:FIT003: LUSE= 13 SIGMA OF V-XC FIT FOR ATOM  3  0.2673487E-03
:FIT003: LUSE= 13 SIGMA OF V-XC FIT FOR ATOM  3  0.2673487E-03
:DEN  : DENSITY INTEGRAL  =         -9870.20153133   (Ry)
       ELS_POTENTIAL_AT Z=0 and Z=0.5:  -0.17059  -0.17059
       ELS_POTENTIAL_AT Y=0 and Y=0.5:   0.00000   0.00000
:VZERO:v0,v0c,v0x  -0.71379  -0.17059  -0.54320 v5,v5c,v5x  -0.71379  -0.17059  -0.54320
:VZERY:v0,v0c,v0x  -0.79685   0.00000  -0.79685 v5,v5c,v5x  -0.79685   0.00000  -0.79685
:VZERX:v0,v0c,v0x  -0.79685   0.00000  -0.79685 v5,v5c,v5x  -0.79685   0.00000  -0.79685
:LMAX-WF:   10   Non-Spherical LMAX:   4

          ATOMIC SPHERE DEPENDENT PARAMETERS FOR ATOM  Fe1       
:e__0001: OVERALL ENERGY PARAMETER IS    0.5495
          OVERALL BASIS SET ON ATOM IS LAPW
:E1_0001: E( 1)=    0.5495
             APW+lo
:E1_0001: E( 1)=   -3.1772   E(BOTTOM)=   -3.209   E(TOP)=   -3.145  1  2   177
             LOCAL ORBITAL
:E2_0001: E( 2)=    0.6137   E(BOTTOM)=    0.376   E(TOP)=    0.852  0  1   122
             APW+lo
:E0_0001: E( 0)=    0.5495
             APW+lo

          ATOMIC SPHERE DEPENDENT PARAMETERS FOR ATOM  Fe2       
:e__0002: OVERALL ENERGY PARAMETER IS    0.5495
          OVERALL BASIS SET ON ATOM IS LAPW
:E1_0002: E( 1)=    0.5495
             APW+lo
:E1_0002: E( 1)=   -3.1772   E(BOTTOM)=   -3.209   E(TOP)=   -3.145  1  2   162
             LOCAL ORBITAL
:E2_0002: E( 2)=    0.6137   E(BOTTOM)=    0.376   E(TOP)=    0.852  0  1   125
             APW+lo
:E0_0002: E( 0)=    0.5495
             APW+lo

          ATOMIC SPHERE DEPENDENT PARAMETERS FOR ATOM  Rh1       
:e__0003: OVERALL ENERGY PARAMETER IS    0.5495
          OVERALL BASIS SET ON ATOM IS LAPW
:E0_0003: E( 0)=    0.5495
             APW+lo
:E0_0003: E( 0)=   -5.0461   E(BOTTOM)=   -5.078   E(TOP)=   -5.014  3  4   159
             LOCAL ORBITAL
:E1_0003: E( 1)=    0.5495
             APW+lo
:E1_0003: E( 1)=   -2.7045   E(BOTTOM)=   -2.801   E(TOP)=   -2.608  2  3   157
             LOCAL ORBITAL
:E2_0003: E( 2)=    0.5495   E(BOTTOM)=    0.128   E(TOP)= -200.000  1 -1    98
             APW+lo

       K=   0.00000   0.00000   0.00000            1
:RKM  : MATRIX SIZE   187LOs:  50  RKM= 6.64  WEIGHT= 1.00  PGR:    
       EIGENVALUES ARE:
:EIG00001:      -5.0410597   -5.0388069   -3.1712436   -3.1712436   -3.1712436
:EIG00006:      -3.1695132   -3.1695132   -3.1695132   -2.6879219   -2.6879219
:EIG00011:      -2.6879219   -2.6805835   -2.6805835   -2.6805835    0.0852692
:EIG00016:       0.3263783    0.3263783    0.3915402    0.3915402    0.3915402
:EIG00021:       0.5412985    0.5412985    0.5412985    0.5493966    0.5493966
:EIG00026:       0.5493966    0.6964740    0.6964740    0.7207860    0.7207860
:EIG00031:       0.7245555    0.7245555    0.7815915    0.7815915    0.7815915
:EIG00036:       1.2760869    1.3242645    1.3242645    1.3242645    1.3426355
:EIG00041:       1.3426355    1.3426355    1.4325656    1.4325656    1.4325656
:EIG00046:       1.4934448    1.9897123    1.9897123    2.0809735    2.1686468
 
:EIG00051:       2.1686468    2.1686468
       ********************************************************

:KPT   :      NUMBER OF K-POINTS:    47
:GAP (global)   :    0.0    Ry =     0.0   eV (metal)
         Bandranges (emin - emax) and occupancy:
:BAN00024:  24    0.477680    0.602104  2.00000000
:BAN00025:  25    0.481257    0.631424  2.00000000
:BAN00026:  26    0.481257    0.644166  2.00000000
:BAN00027:  27    0.625513    0.696795  2.00000000
:BAN00028:  28    0.641565    0.706205  2.00000000
:BAN00029:  29    0.656958    0.720786  1.97165534
:BAN00030:  30    0.667031    0.720786  1.90467371
:BAN00031:  31    0.689693    0.734882  1.55279304
:BAN00032:  32    0.697533    0.740726  0.56328869
:BAN00033:  33    0.710574    0.781591  0.00764186
:BAN00034:  34    0.720545    0.781591 -0.00005264
:BAN00035:  35    0.731478    0.798856  0.00000000
:BAN00036:  36    0.761536    1.276087  0.00000000
:BAN00037:  37    0.801178    1.324265  0.00000000
:BAN00038:  38    0.807504    1.324265  0.00000000
:BAN00039:  39    1.268213    1.450112  0.00000000
        Energy to separate low and high energystates:    0.03527


:NOE  : NUMBER OF ELECTRONS          =   62.000

:FER  : F E R M I - ENERGY(TETRAH.M.)=   0.7122868471
:GMA  : POTENTIAL AND CHARGE CUT-OFF  12.00 Ry**.5

:POS001: ATOM    1 X,Y,Z = 0.00000 0.00000 0.00000  MULT= 1  ZZ= 26.000  Fe1       

       LMMAX  5
       LM=   0 0  4 0  4 4  6 0  6 4

:CHA001: TOTAL VALENCE CHARGE INSIDE SPHERE   1 =  13.2650    (RMT=  2.4300 )
:PCS001: PARTIAL CHARGES SPHERE =  1 S,P,D,F,      D-EG,D-T2G 
:QTL001: 0.4612 6.4908 6.2434 0.0511 0.0000 0.0000 0.0000 2.4506 3.7928 0.0000 0.0000 0.0000
        Q-s-low E-s-low   Q-p-low E-p-low   Q-d-low E-d-low   Q-f-low E-f-low
:EPL001:  0.0011 -2.7942    5.9904 -3.1702    0.0027 -2.8139    0.0011 -2.8314
        Q-s-hi  E-s-hi    Q-p-hi  E-p-hi    Q-d-hi  E-d-hi    Q-f-hi  E-f-hi 
:EPH001:  0.4601  0.3188    0.5004  0.4634    6.2407  0.5896    0.0499  0.5315

:POS002: ATOM    2 X,Y,Z = 0.50000 0.00000 0.00000  MULT= 1  ZZ= 26.000  Fe2       

       LMMAX  5
       LM=   0 0  4 0  4 4  6 0  6 4

:CHA002: TOTAL VALENCE CHARGE INSIDE SPHERE   2 =  13.2649    (RMT=  2.4300 )
:PCS002: PARTIAL CHARGES SPHERE =  2 S,P,D,F,      D-EG,D-T2G 
:QTL002: 0.4612 6.4908 6.2433 0.0511 0.0000 0.0000 0.0000 2.4505 3.7928 0.0000 0.0000 0.0000
        Q-s-low E-s-low   Q-p-low E-p-low   Q-d-low E-d-low   Q-f-low E-f-low
:EPL002:  0.0011 -2.7942    5.9904 -3.1702    0.0027 -2.8139    0.0011 -2.8314
        Q-s-hi  E-s-hi    Q-p-hi  E-p-hi    Q-d-hi  E-d-hi    Q-f-hi  E-f-hi 
:EPH002:  0.4601  0.3188    0.5004  0.4634    6.2406  0.5896    0.0499  0.5315

:POS003: ATOM    3 X,Y,Z = 0.25000 0.25000 0.25000  MULT= 2  ZZ= 45.000  Rh1       

       LMMAX  6
       LM=   0 0  4 0  4 4  6 0  6 4 -3 2

:CHA003: TOTAL VALENCE CHARGE INSIDE SPHERE   3 =  15.3623    (RMT=  2.4300 )
:PCS003: PARTIAL CHARGES SPHERE =  3 S,P,D,F,      D-EG,D-T2G 
:QTL003: 2.3660 6.3286 6.6125 0.0436 0.0000 0.0000 0.0000 2.5582 4.0543 0.0000 0.0000 0.0000
        Q-s-low E-s-low   Q-p-low E-p-low   Q-d-low E-d-low   Q-f-low E-f-low
:EPL003:  1.9976 -5.0395    5.9599 -2.6848    0.0008 -3.1150    0.0004 -3.1129
        Q-s-hi  E-s-hi    Q-p-hi  E-p-hi    Q-d-hi  E-d-hi    Q-f-hi  E-f-hi 
:EPH003:  0.3685  0.3367    0.3687  0.4921    6.6117  0.5024    0.0433  0.5752

:CHA  : TOTAL VALENCE CHARGE INSIDE UNIT CELL =      62.000000

:SUM  : SUM OF EIGENVALUES =         -72.864730516


        1.ATOM      Fe1                   5 CORE STATES
:1S 001: 1S                -513.074485290 Ry
:2S 001: 2S                 -58.981450383 Ry
:2PP001: 2P*                -50.685765789 Ry
:2P 001: 2P                 -49.768175527 Ry
:3S 001: 3S                  -5.660752913 Ry

        2.ATOM      Fe2                   5 CORE STATES
:1S 002: 1S                -513.074484093 Ry
:2S 002: 2S                 -58.981449235 Ry
:2PP002: 2P*                -50.685764630 Ry
:2P 002: 2P                 -49.768174369 Ry
:3S 002: 3S                  -5.660752102 Ry

        3.ATOM      Rh1                   9 CORE STATES
:1S 003: 1S               -1691.403333428 Ry
:2S 003: 2S                -244.293010877 Ry
:2PP003: 2P*               -226.103532366 Ry
:2P 003: 2P                -215.474131931 Ry
:3S 003: 3S                 -42.820762929 Ry
:3PP003: 3P*                -35.702907952 Ry
:3P 003: 3P                 -33.874076943 Ry
:3DD003: 3D*                -21.276999114 Ry
:3D 003: 3D                 -20.916295660 Ry
:CINT001 Core Integral Atom   1   11.999235
:CINT002 Core Integral Atom   2   11.999235
:CINT003 Core Integral Atom   3   28.000000

       DENSITY AT NUCLEUS
        JATOM        VALENCE       SEMI-CORE          CORE           TOTAL
:RTO001:   1        6.745622        0.000000    15302.592318    15309.337941
:RTO002:   2        6.745622        0.000000    15302.592310    15309.337933
:RTO003:   3      539.055152        0.000000   154797.861689   155336.916841
     
       CHARGES OF NEW CHARGE DENSITY
:NTO   : INTERSTITIAL CHARGE =     4.745389
:NPC   : PW Pseudocharge     =    11.586194
:NTO001: CHARGE SPHERE  1    =    25.264190
:NTO002: CHARGE SPHERE  2    =    25.264140
:NTO003: CHARGE SPHERE  3    =    43.362343

:NEC01: NUCLEAR AND ELECTRONIC CHARGE    142.00000   141.99841
     
       CHARGES OF OLD CHARGE DENSITY
:OTO   : INTERSTITIAL CHARGE =     4.066281
:OPC   : PW Pseudocharge     =    12.231630
:OTO001: CHARGE SPHERE  1    =    25.255329
:OTO002: CHARGE SPHERE  2    =    25.255330
:OTO003: CHARGE SPHERE  3    =    43.711530

:NEC02: NUCLEAR AND ELECTRONIC CHARGE    142.00000   142.00000
     
       CONVERGENCE TEST
:DTO001: DIFFERENCE IN SPHERE  1 =  0.2399068
:DTO002: DIFFERENCE IN SPHERE  2 =  0.2399555
:DTO003: DIFFERENCE IN SPHERE  3 =  0.4097692

:DIS  :  CHARGE DISTANCE       ( 0.4097692 for atom    3 spin 1)      0.3248502
 PW Mixed is           49
 
******************************************************
* MULTISECANT MIXING VER9 RELEASE 10.4.0              *
* Standard Mode with controls                        *
* Fixed density scale                                *
* Regularization       1.000E-04                     *
* Trust Upper Limit    5.000E+00                     *
* Max Number of Memory Steps    8                    *
******************************************************
 
:PWTMP   1.1765E+02  4.5917E+02  3.5807E+02
:PLANE:  PW TOTAL      1.8496 DISTAN   3.00E-01  1.62E+01 %
:CHARG:  CLM/ATOM    299.8720 DISTAN   2.29E-01  7.63E-02 %
 
Step History
        DMIX         DMIXT        Red     Pred      Trust     Lambda    MagRel    MagAbs     Beta
  1   3.5000E-02   3.5000E-02 -1.00E+00  1.00E+00 -1.00E+01  1.00E+00  3.50E-02  3.50E-02  1.00E+00
  2   2.5000E-02   2.5000E-02  6.14E-01  1.00E+00 -1.00E+01  1.00E+00  2.50E-02  5.69E-02  1.00E+00
  3   3.7142E-02   3.7142E-02  9.44E-01  1.00E+00 -1.00E+01  1.40E-01  3.71E-02  5.19E-02  1.00E+00
  4   4.8879E-02   4.8879E-02  8.74E-01  9.40E-01  2.50E-01  1.54E+00  6.98E-02  9.20E-02  8.75E-01
  5   1.2220E-01   9.4405E-02 -1.00E+00  5.73E-01  3.75E-01  1.00E+00  1.29E-01  1.49E-01  1.00E+00
:JACOBIANS    9.485E-01   2.264E-01
  
:NORMS:  1/Froebius, Min, Max, Used   0.6044E+00  0.3954E+00  0.9976E+00  0.6250E+00
:INFO :  Number of Memory Steps    4 Skipping    0
:INFO :  SLambda=    1.7972677659  Max    1.7972677659
:PREDicted Charge, CTotal, PW Trust    2.368E-01   4.752E-01   4.960E-02
:PREDicted DMix, Beta, BLim   1.3593E-01  1.8788E+00  5.3094E-01

Eigenvalues, unscaled except for SY+YY
   #     SY Real        SY Imag          SS             YY         SY+YY Real      SY+YY Imag
   1   1.350770E+00   0.000000E+00   1.187714E+00   3.041000E+00   5.190097E+00   0.000000E+00
   2   5.944213E-01   0.000000E+00   2.730133E-01   9.010084E-01   2.247699E+00   0.000000E+00
   3   2.033371E-15   0.000000E+00   6.178685E-04   5.791460E-02   1.025014E-04   0.000000E+00
   4   3.269348E-03   0.000000E+00  -4.155170E-17   7.651552E-05   6.400694E-02   0.000000E+00
 
:INFO :  Singular value  5.190E+00 Weight  1.000E+00 Projection -3.102E-01
:INFO :  Singular value  2.248E+00 Weight  1.000E+00 Projection -3.597E-01
:INFO :  Singular value  6.401E-02 Weight  1.000E+00 Projection -7.037E-01
:INFO :  Singular value  1.025E-04 Weight  1.020E-01 Projection -1.108E+00
:RANK :  ACTIVE   3.10/4  =  77.55 % ; YY RANK   3.06/4  =  76.49 %
 
Increasing Charge by   1.576
:BLIM :  VZERO Control Off
:TRUST:  Step 5.00E-01  Charge 1.43E-01 (e) CTO  3.03E-01 (e) PW  3.85E-01 (e)
:DTRUS:  Lambda    2.750E-02 Increment    1.819E-12 Iterations   103 DMIX    1.088E-01
:INFOA:  Angle SubSpace to MSR1      0.51
:DIRM :  MEMORY  4/8  SCALE   1.000 RED  0.65 PRED  0.57 NEXT  0.39 
:TRAVE:  Charge 9.44E-02 (e) CTO  2.07E-01 (e) PW  2.86E-02 (e)
:DIRP :  |MSR1|= 1.395E-01 |PRATT|= 2.995E-01 ANGLE=   4.8 DEGREES
:DIRQ :  |MSR1|= 2.339E-01 |PRATT|= 6.861E-01 ANGLE=  28.5 DEGREES
:DIRT :  |MSR1|= 2.723E-01 |PRATT|= 7.486E-01 ANGLE=  26.3 DEGREES
:MIX  :   MSE1   REGULARIZATION:  3.04E-04 GREED: 0.10882  LMStep 0.99  0.3638 CTotal         
     
       CHARGES OF MIXED CHARGE DENSITY
:CTO   : INTERSTITIAL CHARGE =     4.368781
:CPC   : PW Pseudocharge     =    11.950127
:CTO001: CHARGE SPHERE  1    =    25.240450
:CTO002: CHARGE SPHERE  2    =    25.240436
:CTO003: CHARGE SPHERE  3    =    43.575166

:NEC03: NUCLEAR AND ELECTRONIC CHARGE    142.00000   142.00000

PW CHANGE     H    K    L      Current       Change    Residue
:PTO001:      0    0    0  4.55745860E-02  5.864E-05  1.094E-04
:PTO002:     -1   -1   -1  1.32838644E-08  1.407E-08  4.882E-08
:PTO003:      0    0   -2 -2.02235664E-02  1.726E-03  4.438E-03
:PTO004:      0   -2   -2  8.81906590E-03 -1.662E-03 -5.290E-03
:PTO005:     -1   -1   -3  7.75907056E-10  5.088E-10  3.059E-10
:PTO006:     -2   -2   -2  1.19204496E-03 -4.655E-04 -1.115E-03
:PTO007:      0    0   -4 -1.31430925E-02  2.955E-03  5.745E-03
:PTO008:     -1   -3   -3 -2.03235830E-08 -2.116E-08 -7.174E-08
:PTO009:      0   -2   -4  1.07612275E-02 -3.896E-03 -8.345E-03
:PTO010:     -2   -2   -4 -3.19933945E-02  1.368E-02  2.897E-02
:PTO011:     -3   -3   -3 -3.57069800E-09 -3.814E-09 -1.338E-08
:PTO012:     -1   -1   -5  6.85614437E-10  8.436E-10  3.472E-09

:ENE  : ********** TOTAL ENERGY IN Ry =       -24232.11287233

 Flat Integration
 New Mode for Coulomb Integral
 Consistent 3/8+Simpson combinations
 Extension of core to zero
 LDM version in phi
 Fifth-order quadrature in outwin


            ---------
:ITE006:  6. ITERATION
            ---------

:NATO :    3 INDEPENDENT AND    4 TOTAL ATOMS IN UNITCELL
       SUBSTANCE: FeRh                                                        

       LATTICE                      = F   
:POT  : POTENTIAL OPTION EX_PBE EC_PBE VX_PBE VC_PBE
:LAT  : LATTICE CONSTANTS= 11.27222 11.27222 11.27222    1.571    1.571    1.571
:VOL  : UNIT CELL VOLUME =     358.07036
       MODE OF CALCULATION IS       = RELA
       NON-SPINPOLARIZED CALCULATION
:IFFT  : FFT-parameters:   90   90   90 Factor: 2.00


   CONVERGENCE PARAMETER FOR PSEUDOCHARGE: NCON=  9
   MAXIMAL VALUE OF RMT(JATOM)*ABSK(NKK) : RK  =29.05063


:VKCOUL :  VK-COUL convergence: 0.665E-07
       ATOMNUMBER=  1 Fe1        VCOUL-ZERO =  0.64860E+00
       ATOMNUMBER=  2 Fe2        VCOUL-ZERO =  0.64859E+00
       ATOMNUMBER=  3 Rh1        VCOUL-ZERO =  0.59589E+00
:FIT001: LUSE= 13 SIGMA OF V-XC FIT FOR ATOM  1  0.2640622E-02
:FIT001: LUSE= 13 SIGMA OF V-XC FIT FOR ATOM  1  0.2640622E-02
:FIT002: LUSE= 13 SIGMA OF V-XC FIT FOR ATOM  2  0.2640616E-02
:FIT002: LUSE= 13 SIGMA OF V-XC FIT FOR ATOM  2  0.2640616E-02
:FIT003: LUSE= 13 SIGMA OF V-XC FIT FOR ATOM  3  0.6815465E-03
:FIT003: LUSE= 13 SIGMA OF V-XC FIT FOR ATOM  3  0.6815465E-03
:DEN  : DENSITY INTEGRAL  =         -9856.79419673   (Ry)
       ELS_POTENTIAL_AT Z=0 and Z=0.5:  -0.12786  -0.12786
       ELS_POTENTIAL_AT Y=0 and Y=0.5:   0.00000   0.00000
:VZERO:v0,v0c,v0x  -0.72073  -0.12786  -0.59287 v5,v5c,v5x  -0.72073  -0.12786  -0.59287
:VZERY:v0,v0c,v0x  -0.80386   0.00000  -0.80386 v5,v5c,v5x  -0.80386   0.00000  -0.80386
:VZERX:v0,v0c,v0x  -0.80386   0.00000  -0.80386 v5,v5c,v5x  -0.80386   0.00000  -0.80386
:LMAX-WF:   10   Non-Spherical LMAX:   4

          ATOMIC SPHERE DEPENDENT PARAMETERS FOR ATOM  Fe1       
:e__0001: OVERALL ENERGY PARAMETER IS    0.5247
          OVERALL BASIS SET ON ATOM IS LAPW
:E1_0001: E( 1)=    0.5247
             APW+lo
:E1_0001: E( 1)=   -3.2513   E(BOTTOM)=   -3.282   E(TOP)=   -3.221  1  2   169
             LOCAL ORBITAL
:E2_0001: E( 2)=    0.5552   E(BOTTOM)=    0.329   E(TOP)=    0.782  0  1   121
             APW+lo
:E0_0001: E( 0)=    0.5247
             APW+lo

          ATOMIC SPHERE DEPENDENT PARAMETERS FOR ATOM  Fe2       
:e__0002: OVERALL ENERGY PARAMETER IS    0.5247
          OVERALL BASIS SET ON ATOM IS LAPW
:E1_0002: E( 1)=    0.5247
             APW+lo
:E1_0002: E( 1)=   -3.2513   E(BOTTOM)=   -3.282   E(TOP)=   -3.221  1  2   154
             LOCAL ORBITAL
:E2_0002: E( 2)=    0.5552   E(BOTTOM)=    0.329   E(TOP)=    0.782  0  1   121
             APW+lo
:E0_0002: E( 0)=    0.5247
             APW+lo

          ATOMIC SPHERE DEPENDENT PARAMETERS FOR ATOM  Rh1       
:e__0003: OVERALL ENERGY PARAMETER IS    0.5247
          OVERALL BASIS SET ON ATOM IS LAPW
:E0_0003: E( 0)=    0.5247
             APW+lo
:E0_0003: E( 0)=   -5.1390   E(BOTTOM)=   -5.170   E(TOP)=   -5.108  3  4   153
             LOCAL ORBITAL
:E1_0003: E( 1)=    0.5247
             APW+lo
:E1_0003: E( 1)=   -2.7904   E(BOTTOM)=   -2.883   E(TOP)=   -2.698  2  3   142
             LOCAL ORBITAL
:E2_0003: E( 2)=    0.5031   E(BOTTOM)=    0.074   E(TOP)=    0.932  1  2   144
             APW+lo

       K=   0.00000   0.00000   0.00000            1
:RKM  : MATRIX SIZE   187LOs:  50  RKM= 6.64  WEIGHT= 1.00  PGR:    
       EIGENVALUES ARE:
:EIG00001:      -5.1341781   -5.1320394   -3.2456453   -3.2456453   -3.2456453
:EIG00006:      -3.2440426   -3.2440426   -3.2440426   -2.7743356   -2.7743356
:EIG00011:      -2.7743356   -2.7674543   -2.7674543   -2.7674543    0.0679104
:EIG00016:       0.2805022    0.2805022    0.3447622    0.3447622    0.3447622
:EIG00021:       0.4890149    0.4890149    0.4890149    0.4928061    0.4928061
:EIG00026:       0.4928061    0.6333806    0.6333806    0.6505941    0.6505941
:EIG00031:       0.6608221    0.6608221    0.7124942    0.7124942    0.7124942
:EIG00036:       1.2573608    1.2845188    1.2845188    1.2845188    1.3216699
:EIG00041:       1.3216699    1.3216699    1.3936964    1.3936964    1.3936964
:EIG00046:       1.4631051    1.9489895    1.9489895    2.0558335    2.1537945
 
:EIG00051:       2.1537945    2.1537945
       ********************************************************

:KPT   :      NUMBER OF K-POINTS:    47
:GAP (global)   :    0.0    Ry =     0.0   eV (metal)
         Bandranges (emin - emax) and occupancy:
:BAN00024:  24    0.423520    0.539615  2.00000000
:BAN00025:  25    0.431396    0.573385  2.00000000
:BAN00026:  26    0.431402    0.586161  2.00000000
:BAN00027:  27    0.570620    0.633381  2.00000000
:BAN00028:  28    0.587997    0.638813  2.00000000
:BAN00029:  29    0.597394    0.650594  1.99829666
:BAN00030:  30    0.606501    0.650594  1.98998387
:BAN00031:  31    0.627675    0.670038  1.54300095
:BAN00032:  32    0.634753    0.673799  0.46453560
:BAN00033:  33    0.642643    0.713275  0.00426857
:BAN00034:  34    0.657066    0.725685 -0.00008565
:BAN00035:  35    0.665273    0.729269  0.00000000
:BAN00036:  36    0.699854    1.257361  0.00000000
:BAN00037:  37    0.737878    1.284519  0.00000000
:BAN00038:  38    0.747632    1.284519  0.00000000
:BAN00039:  39    1.228111    1.412084  0.00000000
        Energy to separate low and high energystates:    0.01791


:NOE  : NUMBER OF ELECTRONS          =   62.000

:FER  : F E R M I - ENERGY(TETRAH.M.)=   0.6474707786
:GMA  : POTENTIAL AND CHARGE CUT-OFF  12.00 Ry**.5

:POS001: ATOM    1 X,Y,Z = 0.00000 0.00000 0.00000  MULT= 1  ZZ= 26.000  Fe1       

       LMMAX  5
       LM=   0 0  4 0  4 4  6 0  6 4

:CHA001: TOTAL VALENCE CHARGE INSIDE SPHERE   1 =  13.1980    (RMT=  2.4300 )
:PCS001: PARTIAL CHARGES SPHERE =  1 S,P,D,F,      D-EG,D-T2G 
:QTL001: 0.4411 6.4369 6.2549 0.0469 0.0000 0.0000 0.0000 2.4529 3.8020 0.0000 0.0000 0.0000
        Q-s-low E-s-low   Q-p-low E-p-low   Q-d-low E-d-low   Q-f-low E-f-low
:EPL001:  0.0010 -2.8826    5.9909 -3.2446    0.0025 -2.9022    0.0011 -2.9198
        Q-s-hi  E-s-hi    Q-p-hi  E-p-hi    Q-d-hi  E-d-hi    Q-f-hi  E-f-hi 
:EPH001:  0.4401  0.2888    0.4461  0.4159    6.2524  0.5341    0.0458  0.4729

:POS002: ATOM    2 X,Y,Z = 0.50000 0.00000 0.00000  MULT= 1  ZZ= 26.000  Fe2       

       LMMAX  5
       LM=   0 0  4 0  4 4  6 0  6 4

:CHA002: TOTAL VALENCE CHARGE INSIDE SPHERE   2 =  13.2007    (RMT=  2.4300 )
:PCS002: PARTIAL CHARGES SPHERE =  2 S,P,D,F,      D-EG,D-T2G 
:QTL002: 0.4410 6.4369 6.2576 0.0469 0.0000 0.0000 0.0000 2.4582 3.7994 0.0000 0.0000 0.0000
        Q-s-low E-s-low   Q-p-low E-p-low   Q-d-low E-d-low   Q-f-low E-f-low
:EPL002:  0.0010 -2.8826    5.9909 -3.2447    0.0025 -2.9022    0.0011 -2.9198
        Q-s-hi  E-s-hi    Q-p-hi  E-p-hi    Q-d-hi  E-d-hi    Q-f-hi  E-f-hi 
:EPH002:  0.4400  0.2888    0.4461  0.4158    6.2551  0.5341    0.0458  0.4729

:POS003: ATOM    3 X,Y,Z = 0.25000 0.25000 0.25000  MULT= 2  ZZ= 45.000  Rh1       

       LMMAX  6
       LM=   0 0  4 0  4 4  6 0  6 4 -3 2

:CHA003: TOTAL VALENCE CHARGE INSIDE SPHERE   3 =  15.5857    (RMT=  2.4300 )
:PCS003: PARTIAL CHARGES SPHERE =  3 S,P,D,F,      D-EG,D-T2G 
:QTL003: 2.3553 6.2925 6.8881 0.0390 0.0000 0.0000 0.0000 2.7459 4.1421 0.0000 0.0000 0.0000
        Q-s-low E-s-low   Q-p-low E-p-low   Q-d-low E-d-low   Q-f-low E-f-low
:EPL003:  1.9977 -5.1327    5.9622 -2.7715    0.0007 -3.1927    0.0004 -3.1901
        Q-s-hi  E-s-hi    Q-p-hi  E-p-hi    Q-d-hi  E-d-hi    Q-f-hi  E-f-hi 
:EPH003:  0.3577  0.3056    0.3304  0.4469    6.8873  0.4485    0.0387  0.5199

:CHA  : TOTAL VALENCE CHARGE INSIDE UNIT CELL =      62.000000

:SUM  : SUM OF EIGENVALUES =         -76.905874380


        1.ATOM      Fe1                   5 CORE STATES
:1S 001: 1S                -513.192031165 Ry
:2S 001: 2S                 -59.102292459 Ry
:2PP001: 2P*                -50.806870128 Ry
:2P 001: 2P                 -49.889237610 Ry
:3S 001: 3S                  -5.739344150 Ry

        2.ATOM      Fe2                   5 CORE STATES
:1S 002: 1S                -513.192058899 Ry
:2S 002: 2S                 -59.102319253 Ry
:2PP002: 2P*                -50.806897162 Ry
:2P 002: 2P                 -49.889264621 Ry
:3S 002: 3S                  -5.739363089 Ry

        3.ATOM      Rh1                   9 CORE STATES
:1S 003: 1S               -1691.525303543 Ry
:2S 003: 2S                -244.415243635 Ry
:2PP003: 2P*               -226.225947392 Ry
:2P 003: 2P                -215.596501490 Ry
:3S 003: 3S                 -42.935990276 Ry
:3PP003: 3P*                -35.818294817 Ry
:3P 003: 3P                 -33.989199841 Ry
:3DD003: 3D*                -21.392967124 Ry
:3D 003: 3D                 -21.032169882 Ry
:CINT001 Core Integral Atom   1   11.999273
:CINT002 Core Integral Atom   2   11.999273
:CINT003 Core Integral Atom   3   28.000000

       DENSITY AT NUCLEUS
        JATOM        VALENCE       SEMI-CORE          CORE           TOTAL
:RTO001:   1        6.393035        0.000000    15303.544319    15309.937354
:RTO002:   2        6.391889        0.000000    15303.544501    15309.936390
:RTO003:   3      540.269815        0.000000   154798.342359   155338.612174
     
       CHARGES OF NEW CHARGE DENSITY
:NTO   : INTERSTITIAL CHARGE =     4.429866
:NPC   : PW Pseudocharge     =    11.092299
:NTO001: CHARGE SPHERE  1    =    25.197302
:NTO002: CHARGE SPHERE  2    =    25.199940
:NTO003: CHARGE SPHERE  3    =    43.585686

:NEC01: NUCLEAR AND ELECTRONIC CHARGE    142.00000   141.99848
     
       CHARGES OF OLD CHARGE DENSITY
:OTO   : INTERSTITIAL CHARGE =     4.368781
:OPC   : PW Pseudocharge     =    11.950127
:OTO001: CHARGE SPHERE  1    =    25.240450
:OTO002: CHARGE SPHERE  2    =    25.240436
:OTO003: CHARGE SPHERE  3    =    43.575166

:NEC02: NUCLEAR AND ELECTRONIC CHARGE    142.00000   142.00000
     
       CONVERGENCE TEST
:DTO001: DIFFERENCE IN SPHERE  1 =  0.1281387
:DTO002: DIFFERENCE IN SPHERE  2 =  0.1298037
:DTO003: DIFFERENCE IN SPHERE  3 =  0.0613559

:DIS  :  CHARGE DISTANCE       ( 0.1298037 for atom    2 spin 1)      0.0951635
 PW Mixed is           49
 
******************************************************
* MULTISECANT MIXING VER9 RELEASE 10.4.0              *
* Standard Mode with controls                        *
* Fixed density scale                                *
* Regularization       1.000E-04                     *
* Trust Upper Limit    5.000E+00                     *
* Max Number of Memory Steps    8                    *
******************************************************
 
:PWTMP   1.1765E+02  4.5917E+02  3.5807E+02
:PLANE:  PW TOTAL      1.8168 DISTAN   1.73E-01  9.55E+00 %
:CHARG:  CLM/ATOM    299.8671 DISTAN   7.21E-02  2.41E-02 %
 
Step History
        DMIX         DMIXT        Red     Pred      Trust     Lambda    MagRel    MagAbs     Beta
  1   3.5000E-02   3.5000E-02 -1.00E+00  1.00E+00 -1.00E+01  1.00E+00  3.50E-02  3.50E-02  1.00E+00
  2   2.5000E-02   2.5000E-02  6.14E-01  1.00E+00 -1.00E+01  1.00E+00  2.50E-02  5.69E-02  1.00E+00
[...]
  6   1.0882E-01   1.0880E-01  3.70E-01  3.94E-01  5.00E-01  2.35E+00  3.64E-01  2.72E-01  1.00E+00
  7   1.7943E-01   1.7943E-01  2.11E+00  7.65E-01  6.67E-01  2.13E+00  5.95E-01  1.65E-01  1.00E+00
  8   1.2683E-01   1.2683E-01  1.46E+00  2.27E-01  2.41E+00  2.58E+00  8.52E-02  4.99E-02  1.00E+00
  9   7.5519E-02   7.5519E-02  1.15E-01  1.15E-01  1.29E+00  2.34E+00  1.80E-02  1.54E-02  9.79E-01
 10   5.6219E-02   5.6219E-02  1.16E+00  8.26E-01  1.71E+00  2.77E+00  1.26E-01  1.23E-02  1.00E+00
 11   1.4055E-01   1.4055E-01  9.20E-01  6.66E-01  1.48E+00  2.77E+00  4.73E-01  5.38E-02  1.00E+00
 12   1.5099E-01   1.5099E-01 -1.00E+00  2.69E-01  2.26E+00  1.00E+00  1.93E-01  2.02E-02  1.00E+00
:JACOBIANS    1.084E+00   1.514E+00
  
:NORMS:  1/Froebius, Min, Max, Used   0.4767E+00  0.3784E+00  0.9708E+00  0.5814E+00
:INFO :  Number of Memory Steps    8 Skipping    3
:INFO :  SLambda=    2.6428627985  Max    2.6428627985
:PREDicted Charge, CTotal, PW Trust    1.257E-02   1.381E-02   1.880E-02
:PREDicted DMix, Beta, BLim   2.3438E-01  1.2869E+00  8.8264E-01

Eigenvalues, unscaled except for SY+YY
   #     SY Real        SY Imag          SS             YY         SY+YY Real      SY+YY Imag
   1   1.489584E+00   0.000000E+00   1.223417E+00   3.619009E+00   7.301144E+00   0.000000E+00
   2   4.625124E-01   5.866016E-02   4.593061E-01   1.912034E+00   2.722321E+00   0.000000E+00
   3   4.625124E-01  -5.866016E-02   1.239957E-01   1.495328E+00   2.445494E+00   0.000000E+00
   4   5.652545E-02   0.000000E+00   1.020759E-02   6.194393E-01   1.418591E+00   0.000000E+00
   5   1.294729E-02   0.000000E+00   7.033307E-04   3.327254E-01   6.547988E-01   0.000000E+00
   6   4.390153E-03   0.000000E+00   1.500233E-04   2.082516E-02   3.369784E-02   0.000000E+00
   7   4.788110E-05   0.000000E+00   1.285589E-04   4.831573E-04   3.673603E-04   0.000000E+00
   8   1.635936E-04   0.000000E+00   5.513229E-06   1.562353E-04   8.323364E-04   0.000000E+00
 
:INFO :  Singular value  7.429E+00 Weight  1.000E+00 Projection -2.244E-02
:INFO :  Singular value  2.850E+00 Weight  1.000E+00 Projection  2.506E-02
:INFO :  Singular value  2.405E+00 Weight  1.000E+00 Projection -1.170E-02
:INFO :  Singular value  1.392E+00 Weight  1.000E+00 Projection -1.202E-02
:INFO :  Singular value  6.372E-01 Weight  1.000E+00 Projection  5.970E-02
:INFO :  Singular value  3.373E-02 Weight  9.999E-01 Projection -9.768E-02
:INFO :  Singular value  8.655E-04 Weight  8.512E-01 Projection  3.972E-01
:INFO :  Singular value  3.528E-04 Weight  4.873E-01 Projection -8.165E-01
:RANK :  ACTIVE   7.34/8  =  91.73 % ; YY RANK   6.80/8  =  84.97 %
 
:BLIM :  VZERO Control Off
:TRUST:  Step 2.32E+00  Charge 5.50E-02 (e) CTO  1.29E-01 (e) PW  1.29E-01 (e)
:DIRM :  MEMORY  8/8  SCALE   1.000 RED  0.78 PRED  0.27 NEXT  0.24 
:TRAVE:  Charge 8.26E-03 (e) CTO  1.16E-02 (e) PW  1.26E-02 (e)
:DIRP :  |MSR1|= 3.386E-03 |PRATT|= 3.967E-03 ANGLE=  68.5 DEGREES
:DIRQ :  |MSR1|= 1.684E-02 |PRATT|= 8.153E-02 ANGLE=  60.0 DEGREES
:DIRT :  |MSR1|= 1.717E-02 |PRATT|= 8.163E-02 ANGLE=  60.5 DEGREES
:MIX  :   MSE1   REGULARIZATION:  3.62E-04 GREED: 0.18251  Newton 1.00  0.2104                
     
       CHARGES OF MIXED CHARGE DENSITY
:CTO   : INTERSTITIAL CHARGE =     4.449268
:CPC   : PW Pseudocharge     =    11.123559
:CTO001: CHARGE SPHERE  1    =    25.195750
:CTO002: CHARGE SPHERE  2    =    25.196060
:CTO003: CHARGE SPHERE  3    =    43.579461

:NEC03: NUCLEAR AND ELECTRONIC CHARGE    142.00000   142.00000

PW CHANGE     H    K    L      Current       Change    Residue
:PTO001:      0    0    0  4.34909693E-02 -2.850E-05 -4.602E-05
:PTO002:     -1   -1   -1 -1.30336932E-06  1.349E-06 -3.466E-05
:PTO003:      0    0   -2 -1.83502795E-02 -1.281E-05 -9.682E-05
:PTO004:      0   -2   -2  6.95234033E-03  2.509E-04  1.517E-04
:PTO005:     -1   -1   -3  5.28606061E-07  3.818E-06  6.532E-06
:PTO006:     -2   -2   -2  1.01379820E-03 -5.287E-05 -1.524E-05
:PTO007:      0    0   -4 -9.96561050E-03  5.744E-05 -2.663E-05
:PTO008:     -1   -3   -3 -2.20795675E-07  5.498E-06  6.805E-05
:PTO009:      0   -2   -4  7.07906547E-03 -5.224E-05  9.216E-05
:PTO010:     -2   -2   -4 -1.67362161E-02  1.070E-04 -2.458E-04
:PTO011:     -3   -3   -3  2.37260382E-07  2.968E-06  1.631E-05
:PTO012:     -1   -1   -5 -6.62308356E-08 -4.640E-06 -1.175E-05

:ENE  : ********** TOTAL ENERGY IN Ry =       -24232.07326902

 Flat Integration
 New Mode for Coulomb Integral
 Consistent 3/8+Simpson combinations
 Extension of core to zero
 LDM version in phi
 Fifth-order quadrature in outwin


            ---------
:ITE013: 13. ITERATION
            ---------

:NATO :    3 INDEPENDENT AND    4 TOTAL ATOMS IN UNITCELL
       SUBSTANCE: FeRh                                                        

       LATTICE                      = F   
:POT  : POTENTIAL OPTION EX_PBE EC_PBE VX_PBE VC_PBE
:LAT  : LATTICE CONSTANTS= 11.27222 11.27222 11.27222    1.571    1.571    1.571
:VOL  : UNIT CELL VOLUME =     358.07036
       MODE OF CALCULATION IS       = RELA
       NON-SPINPOLARIZED CALCULATION
:IFFT  : FFT-parameters:   90   90   90 Factor: 2.00


   CONVERGENCE PARAMETER FOR PSEUDOCHARGE: NCON=  9
   MAXIMAL VALUE OF RMT(JATOM)*ABSK(NKK) : RK  =29.05063


:VKCOUL :  VK-COUL convergence: 0.807E-07
       ATOMNUMBER=  1 Fe1        VCOUL-ZERO =  0.62291E+00
       ATOMNUMBER=  2 Fe2        VCOUL-ZERO =  0.62298E+00
       ATOMNUMBER=  3 Rh1        VCOUL-ZERO =  0.57621E+00
:FIT001: LUSE= 13 SIGMA OF V-XC FIT FOR ATOM  1  0.2194621E-02
:FIT001: LUSE= 13 SIGMA OF V-XC FIT FOR ATOM  1  0.2194621E-02
:FIT002: LUSE= 13 SIGMA OF V-XC FIT FOR ATOM  2  0.2194996E-02
:FIT002: LUSE= 13 SIGMA OF V-XC FIT FOR ATOM  2  0.2194996E-02
:FIT003: LUSE= 13 SIGMA OF V-XC FIT FOR ATOM  3  0.9950225E-03
:FIT003: LUSE= 13 SIGMA OF V-XC FIT FOR ATOM  3  0.9950225E-03
:DEN  : DENSITY INTEGRAL  =         -9853.95154984   (Ry)
       ELS_POTENTIAL_AT Z=0 and Z=0.5:  -0.14800  -0.14800
       ELS_POTENTIAL_AT Y=0 and Y=0.5:   0.00000   0.00000
:VZERO:v0,v0c,v0x  -0.77886  -0.14800  -0.63086 v5,v5c,v5x  -0.77886  -0.14800  -0.63086
:VZERY:v0,v0c,v0x  -0.79675   0.00000  -0.79675 v5,v5c,v5x  -0.79675   0.00000  -0.79675
:VZERX:v0,v0c,v0x  -0.79675   0.00000  -0.79675 v5,v5c,v5x  -0.79675   0.00000  -0.79675
:LMAX-WF:   10   Non-Spherical LMAX:   4

          ATOMIC SPHERE DEPENDENT PARAMETERS FOR ATOM  Fe1       
:e__0001: OVERALL ENERGY PARAMETER IS    0.4226
          OVERALL BASIS SET ON ATOM IS LAPW
:E1_0001: E( 1)=    0.4226
             APW+lo
:E1_0001: E( 1)=   -3.2774   E(BOTTOM)=   -3.308   E(TOP)=   -3.246  1  2   171
             LOCAL ORBITAL
:E2_0001: E( 2)=    0.5275   E(BOTTOM)=    0.300   E(TOP)=    0.755  0  1   127
             APW+lo
:E0_0001: E( 0)=    0.4226
             APW+lo

          ATOMIC SPHERE DEPENDENT PARAMETERS FOR ATOM  Fe2       
:e__0002: OVERALL ENERGY PARAMETER IS    0.4226
          OVERALL BASIS SET ON ATOM IS LAPW
:E1_0002: E( 1)=    0.4226
             APW+lo
:E1_0002: E( 1)=   -3.2770   E(BOTTOM)=   -3.308   E(TOP)=   -3.246  1  2   151
             LOCAL ORBITAL
:E2_0002: E( 2)=    0.5278   E(BOTTOM)=    0.300   E(TOP)=    0.756  0  1   126
             APW+lo
:E0_0002: E( 0)=    0.4226
             APW+lo

          ATOMIC SPHERE DEPENDENT PARAMETERS FOR ATOM  Rh1       
:e__0003: OVERALL ENERGY PARAMETER IS    0.4226
          OVERALL BASIS SET ON ATOM IS LAPW
:E0_0003: E( 0)=    0.4226
             APW+lo
:E0_0003: E( 0)=   -5.1680   E(BOTTOM)=   -5.199   E(TOP)=   -5.137  3  4   151
             LOCAL ORBITAL
:E1_0003: E( 1)=    0.4226
             APW+lo
:E1_0003: E( 1)=   -2.8191   E(BOTTOM)=   -2.912   E(TOP)=   -2.726  2  3   142
             LOCAL ORBITAL
:E2_0003: E( 2)=    0.4751   E(BOTTOM)=    0.046   E(TOP)=    0.904  1  2   146
             APW+lo

       K=   0.00000   0.00000   0.00000            1
:RKM  : MATRIX SIZE   187LOs:  50  RKM= 6.64  WEIGHT= 1.00  PGR:    
       EIGENVALUES ARE:
:EIG00001:      -5.1631422   -5.1610064   -3.2715364   -3.2715364   -3.2715364
:EIG00006:      -3.2698941   -3.2698941   -3.2698941   -2.8029531   -2.8029531
:EIG00011:      -2.8029531   -2.7960799   -2.7960799   -2.7960799    0.0385059
:EIG00016:       0.2524865    0.2524865    0.3161753    0.3161753    0.3161753
:EIG00021:       0.4607593    0.4607593    0.4607593    0.4646064    0.4646064
:EIG00026:       0.4646064    0.6061219    0.6061219    0.6229020    0.6229020
:EIG00031:       0.6338802    0.6338802    0.6853628    0.6853628    0.6853628
:EIG00036:       1.2271282    1.2574092    1.2574092    1.2574092    1.2918099
:EIG00041:       1.2918099    1.2918099    1.3647666    1.3647666    1.3647666
:EIG00046:       1.4340277    1.9213831    1.9213831    2.0284620
 
       ********************************************************

:KPT   :      NUMBER OF K-POINTS:    47
:GAP (global)   :    0.0    Ry =     0.0   eV (metal)
         Bandranges (emin - emax) and occupancy:
:BAN00024:  24    0.395354    0.511394  2.00000000
:BAN00025:  25    0.402868    0.545155  2.00000000
:BAN00026:  26    0.402965    0.558512  2.00000000
:BAN00027:  27    0.542388    0.606122  2.00000000
:BAN00028:  28    0.560388    0.611281  2.00000000
:BAN00029:  29    0.569776    0.622902  1.99840560
:BAN00030:  30    0.578955    0.622902  1.99499715
:BAN00031:  31    0.600313    0.642696  1.54277771
:BAN00032:  32    0.607453    0.646430  0.45883929
:BAN00033:  33    0.614947    0.685827  0.00509110
:BAN00034:  34    0.630104    0.697370 -0.00011087
:BAN00035:  35    0.637947    0.702224  0.00000000
:BAN00036:  36    0.672403    1.227128  0.00000000
:BAN00037:  37    0.710863    1.257409  0.00000000
:BAN00038:  38    0.719379    1.257409  0.00000000
:BAN00039:  39    1.199624    1.383705  0.00000000
        Energy to separate low and high energystates:   -0.01149


:NOE  : NUMBER OF ELECTRONS          =   62.000

:FER  : F E R M I - ENERGY(TETRAH.M.)=   0.6201204519
:GMA  : POTENTIAL AND CHARGE CUT-OFF  12.00 Ry**.5

:POS001: ATOM    1 X,Y,Z = 0.00000 0.00000 0.00000  MULT= 1  ZZ= 26.000  Fe1       

       LMMAX  5
       LM=   0 0  4 0  4 4  6 0  6 4

:CHA001: TOTAL VALENCE CHARGE INSIDE SPHERE   1 =  13.1994    (RMT=  2.4300 )
:PCS001: PARTIAL CHARGES SPHERE =  1 S,P,D,F,      D-EG,D-T2G 
:QTL001: 0.4423 6.4388 6.2529 0.0471 0.0000 0.0000 0.0000 2.4549 3.7980 0.0000 0.0000 0.0000
        Q-s-low E-s-low   Q-p-low E-p-low   Q-d-low E-d-low   Q-f-low E-f-low
:EPL001:  0.0010 -2.9110    5.9908 -3.2707    0.0025 -2.9308    0.0011 -2.9482
        Q-s-hi  E-s-hi    Q-p-hi  E-p-hi    Q-d-hi  E-d-hi    Q-f-hi  E-f-hi 
:EPH001:  0.4413  0.2597    0.4480  0.3875    6.2504  0.5062    0.0460  0.4450

:POS002: ATOM    2 X,Y,Z = 0.50000 0.00000 0.00000  MULT= 1  ZZ= 26.000  Fe2       

       LMMAX  5
       LM=   0 0  4 0  4 4  6 0  6 4

:CHA002: TOTAL VALENCE CHARGE INSIDE SPHERE   2 =  13.1734    (RMT=  2.4300 )
:PCS002: PARTIAL CHARGES SPHERE =  2 S,P,D,F,      D-EG,D-T2G 
:QTL002: 0.4423 6.4388 6.2270 0.0471 0.0000 0.0000 0.0000 2.4344 3.7926 0.0000 0.0000 0.0000
        Q-s-low E-s-low   Q-p-low E-p-low   Q-d-low E-d-low   Q-f-low E-f-low
:EPL002:  0.0010 -2.9110    5.9908 -3.2703    0.0025 -2.9308    0.0011 -2.9482
        Q-s-hi  E-s-hi    Q-p-hi  E-p-hi    Q-d-hi  E-d-hi    Q-f-hi  E-f-hi 
:EPH002:  0.4413  0.2598    0.4480  0.3876    6.2245  0.5060    0.0460  0.4450

:POS003: ATOM    3 X,Y,Z = 0.25000 0.25000 0.25000  MULT= 2  ZZ= 45.000  Rh1       

       LMMAX  6
       LM=   0 0  4 0  4 4  6 0  6 4 -3 2

:CHA003: TOTAL VALENCE CHARGE INSIDE SPHERE   3 =  15.5930    (RMT=  2.4300 )
:PCS003: PARTIAL CHARGES SPHERE =  3 S,P,D,F,      D-EG,D-T2G 
:QTL003: 2.3558 6.2943 6.8929 0.0392 0.0000 0.0000 0.0000 2.7502 4.1427 0.0000 0.0000 0.0000
        Q-s-low E-s-low   Q-p-low E-p-low   Q-d-low E-d-low   Q-f-low E-f-low
:EPL003:  1.9977 -5.1617    5.9622 -2.8001    0.0007 -3.2193    0.0004 -3.2163
        Q-s-hi  E-s-hi    Q-p-hi  E-p-hi    Q-d-hi  E-d-hi    Q-f-hi  E-f-hi 
:EPH003:  0.3581  0.2769    0.3321  0.4187    6.8922  0.4206    0.0389  0.4923

:CHA  : TOTAL VALENCE CHARGE INSIDE UNIT CELL =      62.000000

:SUM  : SUM OF EIGENVALUES =         -78.632781791


        1.ATOM      Fe1                   5 CORE STATES
:1S 001: 1S                -513.174206565 Ry
:2S 001: 2S                 -59.097782607 Ry
:2PP001: 2P*                -50.800133376 Ry
:2P 001: 2P                 -49.882698440 Ry
:3S 001: 3S                  -5.764689995 Ry

        2.ATOM      Fe2                   5 CORE STATES
:1S 002: 1S                -513.173771376 Ry
:2S 002: 2S                 -59.097348506 Ry
:2PP002: 2P*                -50.799697660 Ry
:2P 002: 2P                 -49.882262898 Ry
:3S 002: 3S                  -5.764354486 Ry

        3.ATOM      Rh1                   9 CORE STATES
:1S 003: 1S               -1691.539434736 Ry
:2S 003: 2S                -244.434131473 Ry
:2PP003: 2P*               -226.244046153 Ry
:2P 003: 2P                -215.614772974 Ry
:3S 003: 3S                 -42.959387384 Ry
:3PP003: 3P*                -35.841515134 Ry
:3P 003: 3P                 -34.012600835 Ry
:3DD003: 3D*                -21.416046199 Ry
:3D 003: 3D                 -21.055306166 Ry
:CINT001 Core Integral Atom   1   11.999269
:CINT002 Core Integral Atom   2   11.999269
:CINT003 Core Integral Atom   3   28.000000

       DENSITY AT NUCLEUS
        JATOM        VALENCE       SEMI-CORE          CORE           TOTAL
:RTO001:   1        6.431400        0.000000    15302.962957    15309.394358
:RTO002:   2        6.432373        0.000000    15302.960585    15309.392958
:RTO003:   3      540.363991        0.000000   154797.920795   155338.284786
     
       CHARGES OF NEW CHARGE DENSITY
:NTO   : INTERSTITIAL CHARGE =     4.441145
:NPC   : PW Pseudocharge     =    11.118599
:NTO001: CHARGE SPHERE  1    =    25.198626
:NTO002: CHARGE SPHERE  2    =    25.172706
:NTO003: CHARGE SPHERE  3    =    43.592998

:NEC01: NUCLEAR AND ELECTRONIC CHARGE    142.00000   141.99847
     
       CHARGES OF OLD CHARGE DENSITY
:OTO   : INTERSTITIAL CHARGE =     4.449268
:OPC   : PW Pseudocharge     =    11.123559
:OTO001: CHARGE SPHERE  1    =    25.195750
:OTO002: CHARGE SPHERE  2    =    25.196060
:OTO003: CHARGE SPHERE  3    =    43.579461

:NEC02: NUCLEAR AND ELECTRONIC CHARGE    142.00000   142.00000
     
       CONVERGENCE TEST
:DTO001: DIFFERENCE IN SPHERE  1 =  0.0029850
:DTO002: DIFFERENCE IN SPHERE  2 =  0.0273799
:DTO003: DIFFERENCE IN SPHERE  3 =  0.0128162

:DIS  :  CHARGE DISTANCE       ( 0.0273799 for atom    2 spin 1)      0.0139993
 PW Mixed is           49
 
******************************************************
* MULTISECANT MIXING VER9 RELEASE 10.4.0              *
* Standard Mode with controls                        *
* Fixed density scale                                *
* Regularization       1.000E-04                     *
* Trust Upper Limit    5.000E+00                     *
* Max Number of Memory Steps    8                    *
******************************************************
 
:PWTMP   1.1765E+02  4.5917E+02  3.5807E+02
:PLANE:  PW TOTAL      1.7120 DISTAN   3.68E-03  2.15E-01 %
:CHARG:  CLM/ATOM    299.8720 DISTAN   1.31E-02  4.36E-03 %
 
Step History
        DMIX         DMIXT        Red     Pred      Trust     Lambda    MagRel    MagAbs     Beta
  5   1.2220E-01   9.4405E-02  6.50E-01  5.73E-01  3.75E-01  1.80E+00  1.29E-01  1.49E-01  1.00E+00
  6   1.0882E-01   1.0880E-01  3.70E-01  3.94E-01  5.00E-01  2.35E+00  3.64E-01  2.72E-01  1.00E+00
  7   1.7943E-01   1.7943E-01  2.11E+00  7.65E-01  6.67E-01  2.13E+00  5.95E-01  1.65E-01  1.00E+00
  8   1.2683E-01   1.2683E-01  1.46E+00  2.27E-01  2.41E+00  2.58E+00  8.52E-02  4.99E-02  1.00E+00
  9   7.5519E-02   7.5519E-02  1.15E-01  1.15E-01  1.29E+00  2.34E+00  1.80E-02  1.54E-02  9.79E-01
 10   5.6219E-02   5.6219E-02  1.16E+00  8.26E-01  1.71E+00  2.77E+00  1.26E-01  1.23E-02  1.00E+00
 11   1.4055E-01   1.4055E-01  9.20E-01  6.66E-01  1.48E+00  2.77E+00  4.73E-01  5.38E-02  1.00E+00
 12   1.5099E-01   1.5099E-01  7.80E-01  2.69E-01  2.26E+00  2.64E+00  1.93E-01  2.02E-02  1.00E+00
 13   1.8251E-01   1.8251E-01 -1.00E+00  2.36E-01  2.32E+00  1.00E+00  2.10E-01  1.72E-02  1.00E+00
:JACOBIANS    9.345E-01   1.832E+00
  
:NORMS:  1/Froebius, Min, Max, Used   0.5160E+00  0.3907E+00  0.9376E+00  0.6425E+00
:INFO :  Number of Memory Steps    8 Skipping    4
:INFO :  SLambda=    2.4532862034  Max    2.4532862034
:PREDicted Charge, CTotal, PW Trust    5.722E-03   9.473E-03   4.322E-03
:PREDicted DMix, Beta, BLim   1.6966E-01  9.8881E-01  4.4636E-01

Eigenvalues, unscaled except for SY+YY
   #     SY Real        SY Imag          SS             YY         SY+YY Real      SY+YY Imag
   1   1.642569E+00   0.000000E+00   1.424241E+00   3.450547E+00   6.841128E+00   0.000000E+00
   2   6.064711E-01   0.000000E+00   5.471469E-01   2.150885E+00   3.123507E+00   0.000000E+00
   3   2.376773E-01   3.926454E-02   8.191835E-02   1.072842E+00   2.234780E+00   0.000000E+00
   4   2.376773E-01  -3.926454E-02   7.524888E-02   7.242589E-01   1.534750E+00   0.000000E+00
   5   1.814615E-02   0.000000E+00   1.010369E-03   5.372657E-01   8.903362E-01   0.000000E+00
   6   8.086093E-03   0.000000E+00   5.372095E-04   5.317351E-02   6.576925E-04   0.000000E+00
   7   1.281310E-04   0.000000E+00   1.306939E-04   1.069333E-02   1.424718E-02   0.000000E+00
   8   1.613794E-03   0.000000E+00   4.114509E-05   3.341001E-04   1.129422E-01   0.000000E+00
 
:INFO :  Singular value  6.998E+00 Weight  1.000E+00 Projection -1.072E-02
:INFO :  Singular value  3.090E+00 Weight  1.000E+00 Projection  1.148E-03
:INFO :  Singular value  2.305E+00 Weight  1.000E+00 Projection  3.543E-03
:INFO :  Singular value  1.506E+00 Weight  1.000E+00 Projection  1.288E-02
:INFO :  Singular value  8.711E-01 Weight  1.000E+00 Projection  2.929E-02
:INFO :  Singular value  1.129E-01 Weight  1.000E+00 Projection  2.093E-02
:INFO :  Singular value  1.424E-02 Weight  9.994E-01 Projection  5.436E-02
:INFO :  Singular value  6.573E-04 Weight  7.840E-01 Projection -1.403E-01
:RANK :  ACTIVE   7.78/8  =  97.29 % ; YY RANK   7.48/8  =  93.53 %
 
:DLIM :  Beta Active  9.916E-01
:BLIM :  VZERO Control Off
:TRUST:  Step 3.07E+00  Charge 4.40E-02 (e) CTO  1.03E-01 (e) PW  1.03E-01 (e)
:DIRM :  MEMORY  8/8  SCALE   1.000 RED  0.48 PRED  0.24 NEXT  0.27 BETA  0.99
:TRAVE:  Charge 4.44E-03 (e) CTO  6.60E-03 (e) PW  6.84E-03 (e)
:DIRP :  |MSR1|= 2.899E-03 |PRATT|= 3.683E-03 ANGLE=  23.7 DEGREES
:DIRQ :  |MSR1|= 4.579E-03 |PRATT|= 3.927E-02 ANGLE=  53.8 DEGREES
:DIRT :  |MSR1|= 5.419E-03 |PRATT|= 3.944E-02 ANGLE=  57.2 DEGREES
:MIX  :   MSE1   REGULARIZATION:  3.45E-04 GREED: 0.16312  Newton 1.00  0.1374                
     
       CHARGES OF MIXED CHARGE DENSITY
:CTO   : INTERSTITIAL CHARGE =     4.447617
:CPC   : PW Pseudocharge     =    11.121888
:CTO001: CHARGE SPHERE  1    =    25.196304
:CTO002: CHARGE SPHERE  2    =    25.196674
:CTO003: CHARGE SPHERE  3    =    43.579702

:NEC03: NUCLEAR AND ELECTRONIC CHARGE    142.00000   142.00000

PW CHANGE     H    K    L      Current       Change    Residue
:PTO001:      0    0    0  4.34816933E-02 -9.276E-06 -2.160E-05
:PTO002:     -1   -1   -1 -1.38200787E-06 -7.864E-08  2.276E-05
:PTO003:      0    0   -2 -1.83312442E-02  1.904E-05 -2.233E-05
:PTO004:      0   -2   -2  6.80946300E-03 -1.429E-04 -9.014E-05
:PTO005:     -1   -1   -3  2.06474907E-07 -3.221E-07 -3.659E-06
:PTO006:     -2   -2   -2  1.03064440E-03  1.685E-05  1.331E-05
:PTO007:      0    0   -4 -1.00380177E-02 -7.241E-05 -8.904E-05
:PTO008:     -1   -3   -3 -3.90543935E-07 -1.697E-07 -3.866E-05
:PTO009:      0   -2   -4  7.13182670E-03  5.276E-05  9.576E-05
:PTO010:     -2   -2   -4 -1.69711540E-02 -2.349E-04 -3.376E-04
:PTO011:     -3   -3   -3 -7.36153116E-08 -3.109E-07 -9.317E-06
:PTO012:     -1   -1   -5  4.05706324E-07  4.719E-07  5.748E-06

:ENE  : ********** TOTAL ENERGY IN Ry =       -24232.07323970

