
:LABEL1: Calculations in /home/cmueller/wien/FZU/src/FeRh/FFM/3000k
:LABEL2: on cv036 at Tue Mar 11 05:12:15 PM CET 2025
:LABEL3: using WIEN2k_19.1 (Release 25/6/2019) in /home/cmueller/WIENROOT
:LABEL4: using the command: run_lapw
 Flat Integration
 New Mode for Coulomb Integral
 Consistent 3/8+Simpson combinations
 Extension of core to zero
 LDM version in phi
 Fifth-order quadrature in outwin


            ---------
:ITE001:  1. ITERATION
            ---------

:NATO :    3 INDEPENDENT AND    4 TOTAL ATOMS IN UNITCELL
       SUBSTANCE: FeRh                                                        

       LATTICE                      = F   
:POT  : POTENTIAL OPTION EX_PBE EC_PBE VX_PBE VC_PBE
:LAT  : LATTICE CONSTANTS= 11.27222 11.27222 11.27222    1.571    1.571    1.571
:VOL  : UNIT CELL VOLUME =     358.07036
       MODE OF CALCULATION IS       = RELA
       NON-SPINPOLARIZED CALCULATION
:IFFT  : FFT-parameters:   90   90   90 Factor: 2.00


   CONVERGENCE PARAMETER FOR PSEUDOCHARGE: NCON=  9
   MAXIMAL VALUE OF RMT(JATOM)*ABSK(NKK) : RK  =29.05063


:VKCOUL :  VK-COUL convergence: 0.126E-05
       ATOMNUMBER=  1 Fe1        VCOUL-ZERO =  0.65836E+00
       ATOMNUMBER=  2 Fe2        VCOUL-ZERO =  0.65836E+00
       ATOMNUMBER=  3 Rh1        VCOUL-ZERO =  0.62973E+00
:FIT001: LUSE= 13 SIGMA OF V-XC FIT FOR ATOM  1  0.5273943E-02
:FIT001: LUSE= 13 SIGMA OF V-XC FIT FOR ATOM  1  0.5273943E-02
:FIT002: LUSE= 13 SIGMA OF V-XC FIT FOR ATOM  2  0.5273943E-02
:FIT002: LUSE= 13 SIGMA OF V-XC FIT FOR ATOM  2  0.5273943E-02
:FIT003: LUSE= 13 SIGMA OF V-XC FIT FOR ATOM  3  0.1324738E-02
:FIT003: LUSE= 13 SIGMA OF V-XC FIT FOR ATOM  3  0.1324738E-02
:DEN  : DENSITY INTEGRAL  =         -9889.77809320   (Ry)
       ELS_POTENTIAL_AT Z=0 and Z=0.5:  -0.23886  -0.23886
       ELS_POTENTIAL_AT Y=0 and Y=0.5:   0.00000   0.00000
:VZERO:v0,v0c,v0x  -0.98015  -0.23886  -0.74129 v5,v5c,v5x  -0.98015  -0.23886  -0.74129
:VZERY:v0,v0c,v0x  -0.85926   0.00000  -0.85926 v5,v5c,v5x  -0.85926   0.00000  -0.85926
:VZERX:v0,v0c,v0x  -0.85926   0.00000  -0.85926 v5,v5c,v5x  -0.85926   0.00000  -0.85926
:LMAX-WF:   10   Non-Spherical LMAX:   4

          ATOMIC SPHERE DEPENDENT PARAMETERS FOR ATOM  Fe1       
:e__0001: OVERALL ENERGY PARAMETER IS    0.3000
          OVERALL BASIS SET ON ATOM IS LAPW
:E1_0001: E( 1)=    0.3000
             APW+lo
:E1_0001: E( 1)=   -3.0753   E(BOTTOM)=   -3.109   E(TOP)=   -3.042  1  2   186
             LOCAL ORBITAL
:E2_0001: E( 2)=    0.7000   E(BOTTOM)=    0.450   E(TOP)=    0.950  0  1   138
             APW+lo
:E0_0001: E( 0)=    0.3000
             APW+lo

          ATOMIC SPHERE DEPENDENT PARAMETERS FOR ATOM  Fe2       
:e__0002: OVERALL ENERGY PARAMETER IS    0.3000
          OVERALL BASIS SET ON ATOM IS LAPW
:E1_0002: E( 1)=    0.3000
             APW+lo
:E1_0002: E( 1)=   -3.0753   E(BOTTOM)=   -3.109   E(TOP)=   -3.042  1  2   186
             LOCAL ORBITAL
:E2_0002: E( 2)=    0.7000   E(BOTTOM)=    0.450   E(TOP)=    0.950  0  1   138
             APW+lo
:E0_0002: E( 0)=    0.3000
             APW+lo

          ATOMIC SPHERE DEPENDENT PARAMETERS FOR ATOM  Rh1       
:e__0003: OVERALL ENERGY PARAMETER IS    0.3000
          OVERALL BASIS SET ON ATOM IS LAPW
:E1_0003: E( 1)=    0.3000
             APW+lo
:E1_0003: E( 1)=   -2.5776   E(BOTTOM)=   -2.678   E(TOP)=   -2.478  2  3   175
             LOCAL ORBITAL
:E2_0003: E( 2)=    0.3000   E(BOTTOM)=    0.218   E(TOP)= -200.000  1 -1    94
             APW+lo
:E0_0003: E( 0)=    0.3000
             APW+lo

       K=   0.00000   0.00000   0.00000            1
:RKM  : MATRIX SIZE   185LOs:  48  RKM= 6.64  WEIGHT= 1.00  PGR:    
       EIGENVALUES ARE:
:EIG00001:      -3.0692391   -3.0692391   -3.0692391   -3.0672932   -3.0672932
:EIG00006:      -3.0672932   -2.5604539   -2.5604539   -2.5604539   -2.5525808
:EIG00011:      -2.5525808   -2.5525808    0.1348649    0.4049680    0.4049680
:EIG00016:       0.4721518    0.4721518    0.4721518    0.6178376    0.6178376
:EIG00021:       0.6178376    0.6432026    0.6432026    0.6432026    0.7910283
:EIG00026:       0.7910283    0.8158963    0.8158963    0.8314523    0.8314523
:EIG00031:       0.8841906    0.8841906    0.8841906    1.3267377    1.3964005
:EIG00036:       1.3964005    1.3964005    1.3971498    1.3971498    1.3971498
:EIG00041:       1.5207242    1.5207242    1.5207242    1.5592513
       ********************************************************

:KPT   :      NUMBER OF K-POINTS:   104
:GAP (global)   :    0.0    Ry =     0.0   eV (metal)
         Bandranges (emin - emax) and occupancy:
:BAN00022:  22    0.565072    0.689914  2.00000000
:BAN00023:  23    0.565072    0.723846  2.00000000
:BAN00024:  24    0.565072    0.723846  2.00000000
:BAN00025:  25    0.701185    0.792070  2.00000000
:BAN00026:  26    0.726839    0.805625  2.00016295
:BAN00027:  27    0.739250    0.815896  1.93879586
:BAN00028:  28    0.757514    0.815896  1.88426044
:BAN00029:  29    0.780988    0.837292  1.56472684
:BAN00030:  30    0.787865    0.847876  0.59494912
:BAN00031:  31    0.806294    0.884191  0.01685985
:BAN00032:  32    0.819013    0.884191  0.00024494
:BAN00033:  33    0.825824    0.900895  0.00000000
:BAN00034:  34    0.856467    1.332119  0.00000000
:BAN00035:  35    0.896387    1.396401  0.00000000
:BAN00036:  36    0.906878    1.396401  0.00000000
:BAN00037:  37    1.346321    1.543466  0.00000000
        Energy to separate low and high energystates:    0.08486


:NOE  : NUMBER OF ELECTRONS          =   58.000

:FER  : F E R M I - ENERGY(TETRAH.M.)=   0.8085980876
:GMA  : POTENTIAL AND CHARGE CUT-OFF  12.00 Ry**.5

:POS001: ATOM    1 X,Y,Z = 0.00000 0.00000 0.00000  MULT= 1  ZZ= 26.000  Fe1       

       LMMAX  5
       LM=   0 0  4 0  4 4  6 0  6 4

:CHA001: TOTAL VALENCE CHARGE INSIDE SPHERE   1 =  13.4024    (RMT=  2.4300 )
:PCS001: PARTIAL CHARGES SPHERE =  1 S,P,D,F,      D-EG,D-T2G 
:QTL001: 0.4810 6.5449 6.3023 0.0554 0.0000 0.0000 0.0000 2.4864 3.8158 0.0000 0.0000 0.0000
        Q-s-low E-s-low   Q-p-low E-p-low   Q-d-low E-d-low   Q-f-low E-f-low
:EPL001:  0.0011 -2.5659    5.9898 -3.0680    0.0027 -2.5615    0.0011 -2.5620
        Q-s-hi  E-s-hi    Q-p-hi  E-p-hi    Q-d-hi  E-d-hi    Q-f-hi  E-f-hi 
:EPH001:  0.4799  0.3806    0.5552  0.5412    6.2995  0.6742    0.0543  0.6241

:POS002: ATOM    2 X,Y,Z = 0.50000 0.00000 0.00000  MULT= 1  ZZ= 26.000  Fe2       

       LMMAX  5
       LM=   0 0  4 0  4 4  6 0  6 4

:CHA002: TOTAL VALENCE CHARGE INSIDE SPHERE   2 =  13.4024    (RMT=  2.4300 )
:PCS002: PARTIAL CHARGES SPHERE =  2 S,P,D,F,      D-EG,D-T2G 
:QTL002: 0.4810 6.5449 6.3023 0.0554 0.0000 0.0000 0.0000 2.4864 3.8158 0.0000 0.0000 0.0000
        Q-s-low E-s-low   Q-p-low E-p-low   Q-d-low E-d-low   Q-f-low E-f-low
:EPL002:  0.0011 -2.5659    5.9898 -3.0680    0.0027 -2.5615    0.0011 -2.5620
        Q-s-hi  E-s-hi    Q-p-hi  E-p-hi    Q-d-hi  E-d-hi    Q-f-hi  E-f-hi 
:EPH002:  0.4799  0.3806    0.5552  0.5412    6.2995  0.6742    0.0543  0.6241

:POS003: ATOM    3 X,Y,Z = 0.25000 0.25000 0.25000  MULT= 2  ZZ= 45.000  Rh1       

       LMMAX  6
       LM=   0 0  4 0  4 4  6 0  6 4 -3 2

:CHA003: TOTAL VALENCE CHARGE INSIDE SPHERE   3 =  13.0702    (RMT=  2.4300 )
:PCS003: PARTIAL CHARGES SPHERE =  3 S,P,D,F,      D-EG,D-T2G 
:QTL003: 0.3765 6.3588 6.2740 0.0484 0.0000 0.0000 0.0000 2.3677 3.9063 0.0000 0.0000 0.0000
        Q-s-low E-s-low   Q-p-low E-p-low   Q-d-low E-d-low   Q-f-low E-f-low
:EPL003:  0.0003 -2.9898    5.9572 -2.5571    0.0008 -3.0011    0.0004 -2.9980
        Q-s-hi  E-s-hi    Q-p-hi  E-p-hi    Q-d-hi  E-d-hi    Q-f-hi  E-f-hi 
:EPH003:  0.3762  0.3990    0.4016  0.5650    6.2732  0.5915    0.0480  0.6596

:CHA  : TOTAL VALENCE CHARGE INSIDE UNIT CELL =      58.000000

:SUM  : SUM OF EIGENVALUES =         -47.127777936



   QTL-B VALUE .EQ.    3.20087   in Band of energy    0.82790   ATOM=    3   L=  2
    Most likely no ghostbands, but adjust Energy-parameters for this ATOM and L


:WARN : QTL-B value eq.   3.20 in Band of energy   0.82790  ATOM=    3  L=  2
:WARN : You should change the E-parameter for this atom and L-value in case.in1 (or try the -in1new switch)

        1.ATOM      Fe1                   5 CORE STATES
:1S 001: 1S                -512.917891279 Ry
:2S 001: 2S                 -58.826866001 Ry
:2PP001: 2P*                -50.530155331 Ry
:2P 001: 2P                 -49.612674471 Ry
:3S 001: 3S                  -5.554477635 Ry

        2.ATOM      Fe2                   5 CORE STATES
:1S 002: 1S                -512.917891279 Ry
:2S 002: 2S                 -58.826866001 Ry
:2PP002: 2P*                -50.530155331 Ry
:2P 002: 2P                 -49.612674471 Ry
:3S 002: 3S                  -5.554477635 Ry

        3.ATOM      Rh1                  10 CORE STATES
:1S 003: 1S               -1691.217358224 Ry
:2S 003: 2S                -244.109674305 Ry
:2PP003: 2P*               -225.919343956 Ry
:2P 003: 2P                -215.290136273 Ry
:3S 003: 3S                 -42.651986868 Ry
:3PP003: 3P*                -35.533746793 Ry
:3P 003: 3P                 -33.705449364 Ry
:3DD003: 3D*                -21.106761817 Ry
:3D 003: 3D                 -20.746244980 Ry
:4S 003: 4S                  -4.904518397 Ry
:CINT001 Core Integral Atom   1   11.999197
:CINT002 Core Integral Atom   2   11.999197
:CINT003 Core Integral Atom   3   29.997225

       DENSITY AT NUCLEUS
        JATOM        VALENCE       SEMI-CORE          CORE           TOTAL
:RTO001:   1        7.119724        0.000000    15301.515563    15308.635287
:RTO002:   2        7.119724        0.000000    15301.515563    15308.635287
:RTO003:   3       24.635536        0.000000   155310.014376   155334.649913
     
       CHARGES OF NEW CHARGE DENSITY
:NTO   : INTERSTITIAL CHARGE =     5.054819
:NPC   : PW Pseudocharge     =    11.596985
:NTO001: CHARGE SPHERE  1    =    25.401551
:NTO002: CHARGE SPHERE  2    =    25.401551
:NTO003: CHARGE SPHERE  3    =    43.067430

:NEC01: NUCLEAR AND ELECTRONIC CHARGE    142.00000   141.99278
     
       CHARGES OF OLD CHARGE DENSITY
:OTO   : INTERSTITIAL CHARGE =     3.805005
:OPC   : PW Pseudocharge     =    18.875488
:OTO001: CHARGE SPHERE  1    =    25.256897
:OTO002: CHARGE SPHERE  2    =    25.256897
:OTO003: CHARGE SPHERE  3    =    43.842573

:NEC02: NUCLEAR AND ELECTRONIC CHARGE    142.00000   142.00395
     
       CONVERGENCE TEST
:DTO001: DIFFERENCE IN SPHERE  1 =  0.4716199
:DTO002: DIFFERENCE IN SPHERE  2 =  0.4716199
:DTO003: DIFFERENCE IN SPHERE  3 =  0.9089818

:DIS  :  CHARGE DISTANCE       ( 0.9089818 for atom    3 spin 1)      0.6903009
 PW Mixed is           49
 
******************************************************
* MULTISECANT MIXING VER9 RELEASE 10.4.0              *
* Standard Mode with controls                        *
* Fixed density scale                                *
* Regularization       1.000E-04                     *
* Trust Upper Limit    5.000E+00                     *
* Max Number of Memory Steps    8                    *
******************************************************
 
:PWTMP   1.1765E+02  4.5917E+02  3.5807E+02
:PLANE:  PW TOTAL      2.9797 DISTAN   1.87E+00  6.26E+01 %
:CHARG:  CLM/ATOM    299.8813 DISTAN   4.88E-01  1.63E-01 %
 
Step History
        DMIX         DMIXT        Red     Pred      Trust     Lambda    MagRel    MagAbs     Beta
  1   3.5000E-02   3.5000E-02 -1.00E+00  1.00E+00 -1.00E+01  1.00E+00  3.50E-02  3.50E-02  1.00E+00
:INFO :  Note, Pratt in use
:TRUST:  Step 3.75E-02  Charge 7.50E-02 (e) CTO  2.50E-01 (e) PW  3.50E-01 (e)
:DIRM :  MEMORY  0/ 8 SCALE   1.000
Performing Pseudo Compensation
Final Pseudo Compensation Rescaling     9.98219E-01
:MIX  :   PRATT  REGULARIZATION:  1.00E-04 GREED: 0.02500                  
     
       CHARGES OF MIXED CHARGE DENSITY
:CTO   : INTERSTITIAL CHARGE =     3.832584
:CPC   : PW Pseudocharge     =    13.598985
:CTO001: CHARGE SPHERE  1    =    25.260513
:CTO002: CHARGE SPHERE  2    =    25.260513
:CTO003: CHARGE SPHERE  3    =    43.823195

:NEC03: NUCLEAR AND ELECTRONIC CHARGE    142.00000   142.00000

PW CHANGE     H    K    L      Current       Change    Residue
:PTO001:      0    0    0  4.86819656E-02 -1.459E-02 -1.670E-02
:PTO003:      0    0   -2 -2.51207942E-02  2.291E-02  3.718E-02
:PTO004:      0   -2   -2  3.53793467E-02 -1.011E-01 -1.407E-01
:PTO006:     -2   -2   -2  1.34528690E-03  1.509E-02  1.720E-02
:PTO007:      0    0   -4 -1.19104274E-02 -2.652E-02 -2.711E-02
:PTO009:      0   -2   -4  1.81214838E-02  1.935E-02  1.129E-02
:PTO010:     -2   -2   -4 -4.39673198E-02 -4.904E-02 -2.467E-02
:PTO013:      0   -4   -4 -1.18082147E-02 -8.926E-03  1.859E-03
:PTO015:     -2   -4   -4  5.94687816E-03 -2.577E-04 -5.041E-03
:PTO016:      0    0   -6  1.49477848E-03 -5.637E-05 -9.380E-04
:PTO017:      0   -2   -6 -8.05156861E-03 -2.712E-03  5.832E-03
:PTO019:     -2   -2   -6  1.47434058E-03 -2.432E-03 -3.582E-03

:ENE  : *WARNING** TOTAL ENERGY IN Ry =       -24232.24506145

 Flat Integration
 New Mode for Coulomb Integral
 Consistent 3/8+Simpson combinations
 Extension of core to zero
 LDM version in phi
 Fifth-order quadrature in outwin


            ---------
:ITE002:  2. ITERATION
            ---------

:NATO :    3 INDEPENDENT AND    4 TOTAL ATOMS IN UNITCELL
       SUBSTANCE: FeRh                                                        

       LATTICE                      = F   
:POT  : POTENTIAL OPTION EX_PBE EC_PBE VX_PBE VC_PBE
:LAT  : LATTICE CONSTANTS= 11.27222 11.27222 11.27222    1.571    1.571    1.571
:VOL  : UNIT CELL VOLUME =     358.07036
       MODE OF CALCULATION IS       = RELA
       NON-SPINPOLARIZED CALCULATION
:IFFT  : FFT-parameters:   90   90   90 Factor: 2.00


   CONVERGENCE PARAMETER FOR PSEUDOCHARGE: NCON=  9
   MAXIMAL VALUE OF RMT(JATOM)*ABSK(NKK) : RK  =29.05063


:VKCOUL :  VK-COUL convergence: 0.476E-07
       ATOMNUMBER=  1 Fe1        VCOUL-ZERO =  0.63018E+00
       ATOMNUMBER=  2 Fe2        VCOUL-ZERO =  0.63018E+00
       ATOMNUMBER=  3 Rh1        VCOUL-ZERO =  0.59938E+00
:FIT001: LUSE= 13 SIGMA OF V-XC FIT FOR ATOM  1  0.5081520E-02
:FIT001: LUSE= 13 SIGMA OF V-XC FIT FOR ATOM  1  0.5081520E-02
:FIT002: LUSE= 13 SIGMA OF V-XC FIT FOR ATOM  2  0.5081520E-02
:FIT002: LUSE= 13 SIGMA OF V-XC FIT FOR ATOM  2  0.5081520E-02
:FIT003: LUSE= 13 SIGMA OF V-XC FIT FOR ATOM  3  0.1207494E-02
:FIT003: LUSE= 13 SIGMA OF V-XC FIT FOR ATOM  3  0.1207494E-02
:DEN  : DENSITY INTEGRAL  =         -9883.02009527   (Ry)
       ELS_POTENTIAL_AT Z=0 and Z=0.5:  -0.21748  -0.21748
       ELS_POTENTIAL_AT Y=0 and Y=0.5:   0.00000   0.00000
:VZERO:v0,v0c,v0x  -0.85170  -0.21748  -0.63422 v5,v5c,v5x  -0.85170  -0.21748  -0.63422
:VZERY:v0,v0c,v0x  -0.81405   0.00000  -0.81405 v5,v5c,v5x  -0.81405   0.00000  -0.81405
:VZERX:v0,v0c,v0x  -0.81405   0.00000  -0.81405 v5,v5c,v5x  -0.81405   0.00000  -0.81405
:LMAX-WF:   10   Non-Spherical LMAX:   4

          ATOMIC SPHERE DEPENDENT PARAMETERS FOR ATOM  Fe1       
:e__0001: OVERALL ENERGY PARAMETER IS    0.5000
          OVERALL BASIS SET ON ATOM IS LAPW
:E1_0001: E( 1)=    0.5000
             APW+lo
:E1_0001: E( 1)=   -3.1105   E(BOTTOM)=   -3.144   E(TOP)=   -3.077  1  2   184
             LOCAL ORBITAL
:E2_0001: E( 2)=    0.6662   E(BOTTOM)=    0.418   E(TOP)=    0.915  0  1   122
             APW+lo
:E0_0001: E( 0)=    0.5000
             APW+lo

          ATOMIC SPHERE DEPENDENT PARAMETERS FOR ATOM  Fe2       
:e__0002: OVERALL ENERGY PARAMETER IS    0.5000
          OVERALL BASIS SET ON ATOM IS LAPW
:E1_0002: E( 1)=    0.5000
             APW+lo
:E1_0002: E( 1)=   -3.1105   E(BOTTOM)=   -3.144   E(TOP)=   -3.077  1  2   184
             LOCAL ORBITAL
:E2_0002: E( 2)=    0.6662   E(BOTTOM)=    0.418   E(TOP)=    0.915  0  1   122
             APW+lo
:E0_0002: E( 0)=    0.5000
             APW+lo

          ATOMIC SPHERE DEPENDENT PARAMETERS FOR ATOM  Rh1       
:e__0003: OVERALL ENERGY PARAMETER IS    0.5000
          OVERALL BASIS SET ON ATOM IS LAPW
:E1_0003: E( 1)=    0.5000
             APW+lo
:E1_0003: E( 1)=   -2.6251   E(BOTTOM)=   -2.724   E(TOP)=   -2.526  2  3   168
             LOCAL ORBITAL
:E2_0003: E( 2)=    0.5000   E(BOTTOM)=    0.178   E(TOP)= -200.000  1 -1    93
             APW+lo
:E0_0003: E( 0)=    0.5000
             APW+lo

       K=   0.00000   0.00000   0.00000            1
:RKM  : MATRIX SIZE   185LOs:  48  RKM= 6.64  WEIGHT= 1.00  PGR:    
       EIGENVALUES ARE:
:EIG00001:      -3.1043990   -3.1043990   -3.1043990   -3.1025235   -3.1025235
:EIG00006:      -3.1025235   -2.6080303   -2.6080303   -2.6080303   -2.6002607
:EIG00011:      -2.6002607   -2.6002607    0.1036000    0.3685509    0.3685509
:EIG00016:       0.4344661    0.4344661    0.4344661    0.5846594    0.5846594
:EIG00021:       0.5846594    0.6045345    0.6045345    0.6045345    0.7537729
:EIG00026:       0.7537729    0.7817240    0.7817240    0.7860218    0.7860218
:EIG00031:       0.8446498    0.8446498    0.8446498    1.2952429    1.3632950
:EIG00036:       1.3632950    1.3632950    1.3641193    1.3641193    1.3641193
:EIG00041:       1.4739700    1.4739700    1.4739700    1.5233460    2.0349449
:EIG00046:       2.0349449    2.1066663    2.1854577    2.1854577    2.1854577
 
       ********************************************************

:KPT   :      NUMBER OF K-POINTS:   104
:GAP (global)   :    0.0    Ry =     0.0   eV (metal)
         Bandranges (emin - emax) and occupancy:
:BAN00022:  22    0.527282    0.655602  2.00000000
:BAN00023:  23    0.527282    0.687686  2.00000000
:BAN00024:  24    0.527282    0.689677  2.00000000
:BAN00025:  25    0.667108    0.754632  2.00000000
:BAN00026:  26    0.692381    0.766845  2.00021614
:BAN00027:  27    0.703892    0.781724  1.93562380
:BAN00028:  28    0.720947    0.781724  1.89328072
:BAN00029:  29    0.745082    0.800112  1.56486121
:BAN00030:  30    0.752184    0.808282  0.58820006
:BAN00031:  31    0.769135    0.844650  0.01759565
:BAN00032:  32    0.777054    0.844650  0.00022242
:BAN00033:  33    0.788251    0.861393  0.00000000
:BAN00034:  34    0.818569    1.299399  0.00000000
:BAN00035:  35    0.856809    1.363295  0.00000000
:BAN00036:  36    0.864058    1.363295  0.00000000
:BAN00037:  37    1.308725    1.503576  0.00000000
        Energy to separate low and high energystates:    0.05360


:NOE  : NUMBER OF ELECTRONS          =   58.000

:FER  : F E R M I - ENERGY(TETRAH.M.)=   0.7711200453
:GMA  : POTENTIAL AND CHARGE CUT-OFF  12.00 Ry**.5

:POS001: ATOM    1 X,Y,Z = 0.00000 0.00000 0.00000  MULT= 1  ZZ= 26.000  Fe1       

       LMMAX  5
       LM=   0 0  4 0  4 4  6 0  6 4

:CHA001: TOTAL VALENCE CHARGE INSIDE SPHERE   1 =  13.3068    (RMT=  2.4300 )
:PCS001: PARTIAL CHARGES SPHERE =  1 S,P,D,F,      D-EG,D-T2G 
:QTL001: 0.4773 6.5348 6.2212 0.0546 0.0000 0.0000 0.0000 2.4367 3.7845 0.0000 0.0000 0.0000
        Q-s-low E-s-low   Q-p-low E-p-low   Q-d-low E-d-low   Q-f-low E-f-low
:EPL001:  0.0011 -2.6134    5.9898 -3.1032    0.0027 -2.6090    0.0011 -2.6095
        Q-s-hi  E-s-hi    Q-p-hi  E-p-hi    Q-d-hi  E-d-hi    Q-f-hi  E-f-hi 
:EPH001:  0.4762  0.3473    0.5450  0.5049    6.2185  0.6393    0.0535  0.5845

:POS002: ATOM    2 X,Y,Z = 0.50000 0.00000 0.00000  MULT= 1  ZZ= 26.000  Fe2       

       LMMAX  5
       LM=   0 0  4 0  4 4  6 0  6 4

:CHA002: TOTAL VALENCE CHARGE INSIDE SPHERE   2 =  13.3068    (RMT=  2.4300 )
:PCS002: PARTIAL CHARGES SPHERE =  2 S,P,D,F,      D-EG,D-T2G 
:QTL002: 0.4773 6.5348 6.2212 0.0546 0.0000 0.0000 0.0000 2.4367 3.7845 0.0000 0.0000 0.0000
        Q-s-low E-s-low   Q-p-low E-p-low   Q-d-low E-d-low   Q-f-low E-f-low
:EPL002:  0.0011 -2.6134    5.9898 -3.1032    0.0027 -2.6090    0.0011 -2.6095
        Q-s-hi  E-s-hi    Q-p-hi  E-p-hi    Q-d-hi  E-d-hi    Q-f-hi  E-f-hi 
:EPH002:  0.4762  0.3473    0.5450  0.5049    6.2185  0.6393    0.0535  0.5845

:POS003: ATOM    3 X,Y,Z = 0.25000 0.25000 0.25000  MULT= 2  ZZ= 45.000  Rh1       

       LMMAX  6
       LM=   0 0  4 0  4 4  6 0  6 4 -3 2

:CHA003: TOTAL VALENCE CHARGE INSIDE SPHERE   3 =  13.1909    (RMT=  2.4300 )
:PCS003: PARTIAL CHARGES SPHERE =  3 S,P,D,F,      D-EG,D-T2G 
:QTL003: 0.3765 6.3557 6.3986 0.0478 0.0000 0.0000 0.0000 2.4387 3.9599 0.0000 0.0000 0.0000
        Q-s-low E-s-low   Q-p-low E-p-low   Q-d-low E-d-low   Q-f-low E-f-low
:EPL003:  0.0003 -3.0285    5.9578 -2.6048    0.0008 -3.0391    0.0004 -3.0364
        Q-s-hi  E-s-hi    Q-p-hi  E-p-hi    Q-d-hi  E-d-hi    Q-f-hi  E-f-hi 
:EPH003:  0.3762  0.3664    0.3979  0.5312    6.3978  0.5532    0.0474  0.6247

:CHA  : TOTAL VALENCE CHARGE INSIDE UNIT CELL =      58.000000

:SUM  : SUM OF EIGENVALUES =         -49.360111022


        1.ATOM      Fe1                   5 CORE STATES
:1S 001: 1S                -512.959327369 Ry
:2S 001: 2S                 -58.867781768 Ry
:2PP001: 2P*                -50.571221758 Ry
:2P 001: 2P                 -49.653725598 Ry
:3S 001: 3S                  -5.590103295 Ry

        2.ATOM      Fe2                   5 CORE STATES
:1S 002: 1S                -512.959327373 Ry
:2S 002: 2S                 -58.867781771 Ry
:2PP002: 2P*                -50.571221761 Ry
:2P 002: 2P                 -49.653725602 Ry
:3S 002: 3S                  -5.590103298 Ry

        3.ATOM      Rh1                  10 CORE STATES
:1S 003: 1S               -1691.280371188 Ry
:2S 003: 2S                -244.171721563 Ry
:2PP003: 2P*               -225.981675387 Ry
:2P 003: 2P                -215.352404698 Ry
:3S 003: 3S                 -42.709760212 Ry
:3PP003: 3P*                -35.591637588 Ry
:3P 003: 3P                 -33.763184394 Ry
:3DD003: 3D*                -21.164960694 Ry
:3D 003: 3D                 -20.804389634 Ry
:4S 003: 4S                  -4.953766643 Ry
:CINT001 Core Integral Atom   1   11.999200
:CINT002 Core Integral Atom   2   11.999200
:CINT003 Core Integral Atom   3   29.997254

       DENSITY AT NUCLEUS
        JATOM        VALENCE       SEMI-CORE          CORE           TOTAL
:RTO001:   1        7.049257        0.000000    15301.631332    15308.680589
:RTO002:   2        7.049257        0.000000    15301.631332    15308.680589
:RTO003:   3       24.615176        0.000000   155310.855521   155335.470697
     
       CHARGES OF NEW CHARGE DENSITY
:NTO   : INTERSTITIAL CHARGE =     5.004563
:NPC   : PW Pseudocharge     =    11.542977
:NTO001: CHARGE SPHERE  1    =    25.306018
:NTO002: CHARGE SPHERE  2    =    25.306018
:NTO003: CHARGE SPHERE  3    =    43.188124

:NEC01: NUCLEAR AND ELECTRONIC CHARGE    142.00000   141.99285
     
       CHARGES OF OLD CHARGE DENSITY
:OTO   : INTERSTITIAL CHARGE =     3.832584
:OPC   : PW Pseudocharge     =    13.598985
:OTO001: CHARGE SPHERE  1    =    25.260513
:OTO002: CHARGE SPHERE  2    =    25.260513
:OTO003: CHARGE SPHERE  3    =    43.823195

:NEC02: NUCLEAR AND ELECTRONIC CHARGE    142.00000   142.00000
     
       CONVERGENCE TEST
:DTO001: DIFFERENCE IN SPHERE  1 =  0.5172849
:DTO002: DIFFERENCE IN SPHERE  2 =  0.5172847
:DTO003: DIFFERENCE IN SPHERE  3 =  0.7411152

:DIS  :  CHARGE DISTANCE       ( 0.7411152 for atom    3 spin 1)      0.6292000
 PW Mixed is           49
 
******************************************************
* MULTISECANT MIXING VER9 RELEASE 10.4.0              *
* Slow Mode, cautious                                *
* Fixed density scale                                *
* Regularization       1.000E-04                     *
* Step Trust Radius    0.75000                       *
* Trust Upper Limit    2.000E+00                     *
* Max Number of Memory Steps   12                    *
******************************************************
 
:PWTMP   1.1765E+02  4.5917E+02  3.5807E+02
:PLANE:  PW TOTAL      2.0037 DISTAN   5.53E-01  2.76E+01 %
:CHARG:  CLM/ATOM    299.8792 DISTAN   4.31E-01  1.44E-01 %
 
Step History
        DMIX         DMIXT        Red     Pred      Trust     Lambda    MagRel    MagAbs     Beta
  1   3.5000E-02   3.5000E-02 -1.00E+00  1.00E+00 -1.00E+01  1.00E+00  3.50E-02  3.50E-02  1.00E+00
  2   2.5000E-02   2.5000E-02 -1.00E+00  1.00E+00 -1.00E+01  1.00E+00  2.50E-02  5.93E-02  1.00E+00
:JACOBIANS    4.834E-01   2.141E-03
  
:TRUST:  Step 3.74E-02  Charge 7.50E-02 (e) CTO  2.50E-01 (e) PW  3.50E-01 (e)
:DIRM :  MEMORY  1/12 SCALE   1.000
:MIX  :   PRATT  REGULARIZATION:  1.00E-04 GREED: 0.03745  Expand 1.50  0.0374                
     
       CHARGES OF MIXED CHARGE DENSITY
:CTO   : INTERSTITIAL CHARGE =     3.843220
:CPC   : PW Pseudocharge     =    11.825338
:CTO001: CHARGE SPHERE  1    =    25.261733
:CTO002: CHARGE SPHERE  2    =    25.261733
:CTO003: CHARGE SPHERE  3    =    43.816657

:NEC03: NUCLEAR AND ELECTRONIC CHARGE    142.00000   142.00000

PW CHANGE     H    K    L      Current       Change    Residue
:PTO001:      0    0    0  4.37583218E-02 -4.924E-03 -2.403E-03
:PTO003:      0    0   -2 -1.73900323E-02  7.731E-03  1.375E-02
:PTO004:      0   -2   -2  1.27814486E-03 -3.410E-02 -3.913E-02
:PTO006:     -2   -2   -2  6.43805598E-03  5.093E-03  2.217E-03
:PTO007:      0    0   -4 -2.08584486E-02 -8.948E-03 -5.252E-04
:PTO009:      0   -2   -4  2.46506102E-02  6.529E-03 -7.639E-03
:PTO010:     -2   -2   -4 -6.05120489E-02 -1.654E-02  2.422E-02
:PTO013:      0   -4   -4 -1.48196777E-02 -3.011E-03  1.073E-02
:PTO015:     -2   -4   -4  5.85993324E-03 -8.694E-05 -4.684E-03
:PTO016:      0    0   -6  1.47576128E-03 -1.902E-05 -9.350E-04
:PTO017:      0   -2   -6 -8.96643381E-03 -9.149E-04  8.587E-03
:PTO019:     -2   -2   -6  6.53708792E-04 -8.206E-04 -1.238E-03

:ENE  : ********** TOTAL ENERGY IN Ry =       -24232.21655210

 Flat Integration
 New Mode for Coulomb Integral
 Consistent 3/8+Simpson combinations
 Extension of core to zero
 LDM version in phi
 Fifth-order quadrature in outwin


            ---------
:ITE003:  3. ITERATION
            ---------

:NATO :    3 INDEPENDENT AND    4 TOTAL ATOMS IN UNITCELL
       SUBSTANCE: FeRh                                                        

       LATTICE                      = F   
:POT  : POTENTIAL OPTION EX_PBE EC_PBE VX_PBE VC_PBE
:LAT  : LATTICE CONSTANTS= 11.27222 11.27222 11.27222    1.571    1.571    1.571
:VOL  : UNIT CELL VOLUME =     358.07036
       MODE OF CALCULATION IS       = RELA
       NON-SPINPOLARIZED CALCULATION
:IFFT  : FFT-parameters:   90   90   90 Factor: 2.00


   CONVERGENCE PARAMETER FOR PSEUDOCHARGE: NCON=  9
   MAXIMAL VALUE OF RMT(JATOM)*ABSK(NKK) : RK  =29.05063


:VKCOUL :  VK-COUL convergence: 0.535E-07
       ATOMNUMBER=  1 Fe1        VCOUL-ZERO =  0.62089E+00
       ATOMNUMBER=  2 Fe2        VCOUL-ZERO =  0.62089E+00
       ATOMNUMBER=  3 Rh1        VCOUL-ZERO =  0.58936E+00
:FIT001: LUSE= 13 SIGMA OF V-XC FIT FOR ATOM  1  0.5018318E-02
:FIT001: LUSE= 13 SIGMA OF V-XC FIT FOR ATOM  1  0.5018318E-02
:FIT002: LUSE= 13 SIGMA OF V-XC FIT FOR ATOM  2  0.5018318E-02
:FIT002: LUSE= 13 SIGMA OF V-XC FIT FOR ATOM  2  0.5018318E-02
:FIT003: LUSE= 13 SIGMA OF V-XC FIT FOR ATOM  3  0.1168795E-02
:FIT003: LUSE= 13 SIGMA OF V-XC FIT FOR ATOM  3  0.1168795E-02
:DEN  : DENSITY INTEGRAL  =         -9880.77320693   (Ry)
       ELS_POTENTIAL_AT Z=0 and Z=0.5:  -0.21032  -0.21032
       ELS_POTENTIAL_AT Y=0 and Y=0.5:   0.00000   0.00000
:VZERO:v0,v0c,v0x  -0.74491  -0.21032  -0.53459 v5,v5c,v5x  -0.74491  -0.21032  -0.53459
:VZERY:v0,v0c,v0x  -0.77949   0.00000  -0.77949 v5,v5c,v5x  -0.77949   0.00000  -0.77949
:VZERX:v0,v0c,v0x  -0.77949   0.00000  -0.77949 v5,v5c,v5x  -0.77949   0.00000  -0.77949
:LMAX-WF:   10   Non-Spherical LMAX:   4

          ATOMIC SPHERE DEPENDENT PARAMETERS FOR ATOM  Fe1       
:e__0001: OVERALL ENERGY PARAMETER IS    0.5474
          OVERALL BASIS SET ON ATOM IS LAPW
:E1_0001: E( 1)=    0.5474
             APW+lo
:E1_0001: E( 1)=   -3.1222   E(BOTTOM)=   -3.155   E(TOP)=   -3.089  1  2   185
             LOCAL ORBITAL
:E2_0001: E( 2)=    0.6551   E(BOTTOM)=    0.407   E(TOP)=    0.903  0  1   131
             APW+lo
:E0_0001: E( 0)=    0.5474
             APW+lo

          ATOMIC SPHERE DEPENDENT PARAMETERS FOR ATOM  Fe2       
:e__0002: OVERALL ENERGY PARAMETER IS    0.5474
          OVERALL BASIS SET ON ATOM IS LAPW
:E1_0002: E( 1)=    0.5474
             APW+lo
:E1_0002: E( 1)=   -3.1222   E(BOTTOM)=   -3.155   E(TOP)=   -3.089  1  2   185
             LOCAL ORBITAL
:E2_0002: E( 2)=    0.6551   E(BOTTOM)=    0.407   E(TOP)=    0.903  0  1   131
             APW+lo
:E0_0002: E( 0)=    0.5474
             APW+lo

          ATOMIC SPHERE DEPENDENT PARAMETERS FOR ATOM  Rh1       
:e__0003: OVERALL ENERGY PARAMETER IS    0.5474
          OVERALL BASIS SET ON ATOM IS LAPW
:E1_0003: E( 1)=    0.5474
             APW+lo
:E1_0003: E( 1)=   -2.6409   E(BOTTOM)=   -2.740   E(TOP)=   -2.542  2  3   168
             LOCAL ORBITAL
:E2_0003: E( 2)=    0.5474   E(BOTTOM)=    0.164   E(TOP)= -200.000  1 -1    94
             APW+lo
:E0_0003: E( 0)=    0.5474
             APW+lo

       K=   0.00000   0.00000   0.00000            1
:RKM  : MATRIX SIZE   185LOs:  48  RKM= 6.64  WEIGHT= 1.00  PGR:    
       EIGENVALUES ARE:
:EIG00001:      -3.1160404   -3.1160404   -3.1160404   -3.1141874   -3.1141874
:EIG00006:      -3.1141874   -2.6238727   -2.6238727   -2.6238727   -2.6161380
:EIG00011:      -2.6161380   -2.6161380    0.0932889    0.3564803    0.3564803
:EIG00016:       0.4219457    0.4219457    0.4219457    0.5736843    0.5736843
:EIG00021:       0.5736843    0.5916909    0.5916909    0.5916909    0.7415355
:EIG00026:       0.7415355    0.7704192    0.7704192    0.7712898    0.7712898
:EIG00031:       0.8317867    0.8317867    0.8317867    1.2849419    1.3521136
:EIG00036:       1.3521136    1.3521136    1.3534908    1.3534908    1.3534908
:EIG00041:       1.4601397    1.4601397    1.4601397    1.5114460    2.0201141
:EIG00046:       2.0201141    2.0950927    2.1747912    2.1747912    2.1747912
 
       ********************************************************

:KPT   :      NUMBER OF K-POINTS:   104
:GAP (global)   :    0.0    Ry =     0.0   eV (metal)
         Bandranges (emin - emax) and occupancy:
:BAN00022:  22    0.514722    0.644233  2.00000000
:BAN00023:  23    0.515070    0.674078  2.00000000
:BAN00024:  24    0.515070    0.678386  2.00000000
:BAN00025:  25    0.656282    0.742327  2.00000000
:BAN00026:  26    0.680990    0.753238  2.00016361
:BAN00027:  27    0.692251    0.770419  1.94517302
:BAN00028:  28    0.708902    0.770419  1.89846208
:BAN00029:  29    0.733257    0.787855  1.55373324
:BAN00030:  30    0.740416    0.795369  0.58412999
:BAN00031:  31    0.756731    0.831787  0.01813368
:BAN00032:  32    0.765757    0.831787  0.00020438
:BAN00033:  33    0.775929    0.848536  0.00000000
:BAN00034:  34    0.806167    1.288770  0.00000000
:BAN00035:  35    0.843923    1.352114  0.00000000
:BAN00036:  36    0.850265    1.352114  0.00000000
:BAN00037:  37    1.296363    1.491096  0.00000000
        Energy to separate low and high energystates:    0.04329


:NOE  : NUMBER OF ELECTRONS          =   58.000

:FER  : F E R M I - ENERGY(TETRAH.M.)=   0.7587601080
:GMA  : POTENTIAL AND CHARGE CUT-OFF  12.00 Ry**.5

:POS001: ATOM    1 X,Y,Z = 0.00000 0.00000 0.00000  MULT= 1  ZZ= 26.000  Fe1       

       LMMAX  5
       LM=   0 0  4 0  4 4  6 0  6 4

:CHA001: TOTAL VALENCE CHARGE INSIDE SPHERE   1 =  13.2780    (RMT=  2.4300 )
:PCS001: PARTIAL CHARGES SPHERE =  1 S,P,D,F,      D-EG,D-T2G 
:QTL001: 0.4761 6.5316 6.1970 0.0544 0.0000 0.0000 0.0000 2.4209 3.7761 0.0000 0.0000 0.0000
        Q-s-low E-s-low   Q-p-low E-p-low   Q-d-low E-d-low   Q-f-low E-f-low
:EPL001:  0.0011 -2.6292    5.9898 -3.1148    0.0027 -2.6249    0.0011 -2.6253
        Q-s-hi  E-s-hi    Q-p-hi  E-p-hi    Q-d-hi  E-d-hi    Q-f-hi  E-f-hi 
:EPH001:  0.4750  0.3363    0.5418  0.4929    6.1944  0.6278    0.0533  0.5715

:POS002: ATOM    2 X,Y,Z = 0.50000 0.00000 0.00000  MULT= 1  ZZ= 26.000  Fe2       

       LMMAX  5
       LM=   0 0  4 0  4 4  6 0  6 4

:CHA002: TOTAL VALENCE CHARGE INSIDE SPHERE   2 =  13.2780    (RMT=  2.4300 )
:PCS002: PARTIAL CHARGES SPHERE =  2 S,P,D,F,      D-EG,D-T2G 
:QTL002: 0.4761 6.5316 6.1970 0.0544 0.0000 0.0000 0.0000 2.4209 3.7761 0.0000 0.0000 0.0000
        Q-s-low E-s-low   Q-p-low E-p-low   Q-d-low E-d-low   Q-f-low E-f-low
:EPL002:  0.0011 -2.6292    5.9898 -3.1148    0.0027 -2.6249    0.0011 -2.6253
        Q-s-hi  E-s-hi    Q-p-hi  E-p-hi    Q-d-hi  E-d-hi    Q-f-hi  E-f-hi 
:EPH002:  0.4750  0.3363    0.5418  0.4929    6.1944  0.6278    0.0533  0.5715

:POS003: ATOM    3 X,Y,Z = 0.25000 0.25000 0.25000  MULT= 2  ZZ= 45.000  Rh1       

       LMMAX  6
       LM=   0 0  4 0  4 4  6 0  6 4 -3 2

:CHA003: TOTAL VALENCE CHARGE INSIDE SPHERE   3 =  13.2280    (RMT=  2.4300 )
:PCS003: PARTIAL CHARGES SPHERE =  3 S,P,D,F,      D-EG,D-T2G 
:QTL003: 0.3765 6.3548 6.4370 0.0476 0.0000 0.0000 0.0000 2.4585 3.9784 0.0000 0.0000 0.0000
        Q-s-low E-s-low   Q-p-low E-p-low   Q-d-low E-d-low   Q-f-low E-f-low
:EPL003:  0.0003 -3.0413    5.9580 -2.6206    0.0008 -3.0516    0.0004 -3.0490
        Q-s-hi  E-s-hi    Q-p-hi  E-p-hi    Q-d-hi  E-d-hi    Q-f-hi  E-f-hi 
:EPH003:  0.3762  0.3556    0.3968  0.5201    6.4361  0.5404    0.0472  0.6132

:CHA  : TOTAL VALENCE CHARGE INSIDE UNIT CELL =      58.000000

:SUM  : SUM OF EIGENVALUES =         -50.100207613


        1.ATOM      Fe1                   5 CORE STATES
:1S 001: 1S                -512.973083889 Ry
:2S 001: 2S                 -58.881362729 Ry
:2PP001: 2P*                -50.584853553 Ry
:2P 001: 2P                 -49.667352231 Ry
:3S 001: 3S                  -5.601899734 Ry

        2.ATOM      Fe2                   5 CORE STATES
:1S 002: 1S                -512.973083894 Ry
:2S 002: 2S                 -58.881362734 Ry
:2PP002: 2P*                -50.584853557 Ry
:2P 002: 2P                 -49.667352236 Ry
:3S 002: 3S                  -5.601899738 Ry

        3.ATOM      Rh1                  10 CORE STATES
:1S 003: 1S               -1691.301416962 Ry
:2S 003: 2S                -244.192441514 Ry
:2PP003: 2P*               -226.002491217 Ry
:2P 003: 2P                -215.373199270 Ry
:3S 003: 3S                 -42.729038218 Ry
:3PP003: 3P*                -35.610955229 Ry
:3P 003: 3P                 -33.782449487 Ry
:3DD003: 3D*                -21.184382317 Ry
:3D 003: 3D                 -20.823792966 Ry
:4S 003: 4S                  -4.970169610 Ry
:CINT001 Core Integral Atom   1   11.999202
:CINT002 Core Integral Atom   2   11.999202
:CINT003 Core Integral Atom   3   29.997264

       DENSITY AT NUCLEUS
        JATOM        VALENCE       SEMI-CORE          CORE           TOTAL
:RTO001:   1        7.019744        0.000000    15301.670380    15308.690124
:RTO002:   2        7.019744        0.000000    15301.670380    15308.690124
:RTO003:   3       24.590620        0.000000   155311.139112   155335.729732
     
       CHARGES OF NEW CHARGE DENSITY
:NTO   : INTERSTITIAL CHARGE =     4.987975
:NPC   : PW Pseudocharge     =    11.528387
:NTO001: CHARGE SPHERE  1    =    25.277190
:NTO002: CHARGE SPHERE  2    =    25.277190
:NTO003: CHARGE SPHERE  3    =    43.225256

:NEC01: NUCLEAR AND ELECTRONIC CHARGE    142.00000   141.99287
     
       CHARGES OF OLD CHARGE DENSITY
:OTO   : INTERSTITIAL CHARGE =     3.843220
:OPC   : PW Pseudocharge     =    11.825338
:OTO001: CHARGE SPHERE  1    =    25.261733
:OTO002: CHARGE SPHERE  2    =    25.261733
:OTO003: CHARGE SPHERE  3    =    43.816657

:NEC02: NUCLEAR AND ELECTRONIC CHARGE    142.00000   142.00000
     
       CONVERGENCE TEST
:DTO001: DIFFERENCE IN SPHERE  1 =  0.5305383
:DTO002: DIFFERENCE IN SPHERE  2 =  0.5305382
:DTO003: DIFFERENCE IN SPHERE  3 =  0.6963768

:DIS  :  CHARGE DISTANCE       ( 0.6963768 for atom    3 spin 1)      0.6134575
 PW Mixed is           49
 
******************************************************
* MULTISECANT MIXING VER9 RELEASE 10.4.0              *
* Standard Mode with controls                        *
* Fixed density scale                                *
* Regularization       1.000E-04                     *
* Trust Upper Limit    5.000E+00                     *
* Max Number of Memory Steps    8                    *
******************************************************
 
:PWTMP   1.1765E+02  4.5917E+02  3.5807E+02
:PLANE:  PW TOTAL      1.8230 DISTAN   4.32E-01  2.37E+01 %
:CHARG:  CLM/ATOM    299.8784 DISTAN   4.17E-01  1.39E-01 %
 
Step History
        DMIX         DMIXT        Red     Pred      Trust     Lambda    MagRel    MagAbs     Beta
  1   3.5000E-02   3.5000E-02 -1.00E+00  1.00E+00 -1.00E+01  1.00E+00  3.50E-02  3.50E-02  1.00E+00
  2   2.5000E-02   2.5000E-02  5.93E-01  1.00E+00 -1.00E+01  1.00E+00  2.50E-02  5.93E-02  1.00E+00
  3   3.7449E-02   3.7449E-02 -1.00E+00  1.00E+00 -1.00E+01  1.00E+00  3.74E-02  5.27E-02  1.00E+00
:JACOBIANS    7.344E-01   2.047E-03
  
:NORMS:  1/Froebius, Min, Max, Used   0.9863E+00  0.4943E+00  0.9885E+00  0.9864E+00
:INFO :  Number of Memory Steps    2 Skipping    0
:INFO :  SLambda=    0.1705470193  Max    0.1705470193
:PREDicted Charge, CTotal, PW Trust    5.766E-03   9.379E-03   5.108E-01
:PREDicted DMix, Beta, BLim   7.0798E-02  8.4734E-01  4.0574E-01

Eigenvalues, unscaled except for SY+YY
   #     SY Real        SY Imag          SS             YY         SY+YY Real      SY+YY Imag
   1  -2.109424E-15   0.000000E+00   1.945477E+00   1.999516E+00   4.844833E-04   0.000000E+00
   2   1.952152E+00   0.000000E+00   0.000000E+00   4.836190E-04   2.332449E+00   0.000000E+00
 
:INFO :  Singular value  2.332E+00 Weight  1.000E+00 Projection  1.738E-02
:INFO :  Singular value  4.845E-04 Weight  8.545E-01 Projection -2.342E+01
:RANK :  ACTIVE   1.85/2  =  92.72 % ; YY RANK   1.85/2  =  92.70 %
 
:DLIM :  Beta Active  8.855E-01
:BLIM :  VZERO Control Off
:TRUST:  Step 2.53E-01  Charge 7.50E-02 (e) CTO  2.50E-01 (e) PW  3.85E-01 (e)
:DIRM :  MEMORY  2/8  SCALE   1.000 RED  0.94 PRED  1.00 NEXT  0.90 BETA  0.89
:TRAVE:  Charge 2.57E-02 (e) CTO  5.85E-02 (e) PW  8.56E-02 (e)
:DIRP :  |MSR1|= 7.070E-02 |PRATT|= 4.318E-01 ANGLE=  55.2 DEGREES
:DIRQ :  |MSR1|= 5.642E-02 |PRATT|= 1.252E+00 ANGLE=  24.8 DEGREES
:DIRT :  |MSR1|= 9.045E-02 |PRATT|= 1.324E+00 ANGLE=  47.1 DEGREES
:MIX  :   MSD1   REGULARIZATION:  2.00E-04 GREED: 0.05226  Newton 1.00  0.0683                
     
       CHARGES OF MIXED CHARGE DENSITY
:CTO   : INTERSTITIAL CHARGE =     3.901743
:CPC   : PW Pseudocharge     =    12.027440
:CTO001: CHARGE SPHERE  1    =    25.258186
:CTO002: CHARGE SPHERE  2    =    25.258186
:CTO003: CHARGE SPHERE  3    =    43.790943

:NEC03: NUCLEAR AND ELECTRONIC CHARGE    142.00000   142.00000

PW CHANGE     H    K    L      Current       Change    Residue
:PTO001:      0    0    0  4.44861806E-02  7.279E-04  2.434E-03
:PTO002:     -1   -1   -1 -1.59310587E-10 -1.593E-10 -9.792E-11
:PTO003:      0    0   -2 -1.80507638E-02 -6.607E-04  5.840E-03
:PTO004:      0   -2   -2  5.24783387E-03  3.970E-03 -4.838E-03
:PTO005:     -1   -1   -3 -8.78007294E-11 -8.780E-11  2.385E-10
:PTO006:     -2   -2   -2  5.64617058E-03 -7.919E-04 -2.832E-03
:PTO007:      0    0   -4 -1.92802038E-02  1.578E-03  8.428E-03
:PTO008:     -1   -3   -3  2.53643810E-10  2.536E-10  2.481E-10
:PTO009:      0   -2   -4  2.30936511E-02 -1.557E-03 -1.402E-02
:PTO010:     -2   -2   -4 -5.63235202E-02  4.189E-03  4.072E-02
:PTO011:     -3   -3   -3  6.88783353E-11  6.888E-11  8.079E-11
:PTO012:     -1   -1   -5 -7.93961861E-11 -7.940E-11 -2.848E-11

:ENE  : ********** TOTAL ENERGY IN Ry =       -24232.20884725

 Flat Integration
 New Mode for Coulomb Integral
 Consistent 3/8+Simpson combinations
 Extension of core to zero
 LDM version in phi
 Fifth-order quadrature in outwin


            ---------
:ITE004:  4. ITERATION
            ---------

:NATO :    3 INDEPENDENT AND    4 TOTAL ATOMS IN UNITCELL
       SUBSTANCE: FeRh                                                        

       LATTICE                      = F   
:POT  : POTENTIAL OPTION EX_PBE EC_PBE VX_PBE VC_PBE
:LAT  : LATTICE CONSTANTS= 11.27222 11.27222 11.27222    1.571    1.571    1.571
:VOL  : UNIT CELL VOLUME =     358.07036
       MODE OF CALCULATION IS       = RELA
       NON-SPINPOLARIZED CALCULATION
:IFFT  : FFT-parameters:   90   90   90 Factor: 2.00


   CONVERGENCE PARAMETER FOR PSEUDOCHARGE: NCON=  9
   MAXIMAL VALUE OF RMT(JATOM)*ABSK(NKK) : RK  =29.05063


:VKCOUL :  VK-COUL convergence: 0.540E-07
       ATOMNUMBER=  1 Fe1        VCOUL-ZERO =  0.62575E+00
       ATOMNUMBER=  2 Fe2        VCOUL-ZERO =  0.62575E+00
       ATOMNUMBER=  3 Rh1        VCOUL-ZERO =  0.59192E+00
:FIT001: LUSE= 13 SIGMA OF V-XC FIT FOR ATOM  1  0.4694655E-02
:FIT001: LUSE= 13 SIGMA OF V-XC FIT FOR ATOM  1  0.4694655E-02
:FIT002: LUSE= 13 SIGMA OF V-XC FIT FOR ATOM  2  0.4694655E-02
:FIT002: LUSE= 13 SIGMA OF V-XC FIT FOR ATOM  2  0.4694655E-02
:FIT003: LUSE= 13 SIGMA OF V-XC FIT FOR ATOM  3  0.9298825E-03
:FIT003: LUSE= 13 SIGMA OF V-XC FIT FOR ATOM  3  0.9298825E-03
:DEN  : DENSITY INTEGRAL  =         -9877.83108039   (Ry)
       ELS_POTENTIAL_AT Z=0 and Z=0.5:  -0.20486  -0.20486
       ELS_POTENTIAL_AT Y=0 and Y=0.5:   0.00000   0.00000
:VZERO:v0,v0c,v0x  -0.75764  -0.20486  -0.55277 v5,v5c,v5x  -0.75764  -0.20486  -0.55277
:VZERY:v0,v0c,v0x  -0.78621   0.00000  -0.78621 v5,v5c,v5x  -0.78621   0.00000  -0.78621
:VZERX:v0,v0c,v0x  -0.78621   0.00000  -0.78621 v5,v5c,v5x  -0.78621   0.00000  -0.78621
:LMAX-WF:   10   Non-Spherical LMAX:   4

          ATOMIC SPHERE DEPENDENT PARAMETERS FOR ATOM  Fe1       
:e__0001: OVERALL ENERGY PARAMETER IS    0.5550
          OVERALL BASIS SET ON ATOM IS LAPW
:E1_0001: E( 1)=    0.5550
             APW+lo
:E1_0001: E( 1)=   -3.1406   E(BOTTOM)=   -3.174   E(TOP)=   -3.108  1  2   177
             LOCAL ORBITAL
:E2_0001: E( 2)=    0.6412   E(BOTTOM)=    0.396   E(TOP)=    0.886  0  1   124
             APW+lo
:E0_0001: E( 0)=    0.5550
             APW+lo

          ATOMIC SPHERE DEPENDENT PARAMETERS FOR ATOM  Fe2       
:e__0002: OVERALL ENERGY PARAMETER IS    0.5550
          OVERALL BASIS SET ON ATOM IS LAPW
:E1_0002: E( 1)=    0.5550
             APW+lo
:E1_0002: E( 1)=   -3.1406   E(BOTTOM)=   -3.174   E(TOP)=   -3.108  1  2   180
             LOCAL ORBITAL
:E2_0002: E( 2)=    0.6412   E(BOTTOM)=    0.396   E(TOP)=    0.886  0  1   123
             APW+lo
:E0_0002: E( 0)=    0.5550
             APW+lo

          ATOMIC SPHERE DEPENDENT PARAMETERS FOR ATOM  Rh1       
:e__0003: OVERALL ENERGY PARAMETER IS    0.5550
          OVERALL BASIS SET ON ATOM IS LAPW
:E1_0003: E( 1)=    0.5550
             APW+lo
:E1_0003: E( 1)=   -2.6560   E(BOTTOM)=   -2.754   E(TOP)=   -2.558  2  3   171
             LOCAL ORBITAL
:E2_0003: E( 2)=    0.5550   E(BOTTOM)=    0.156   E(TOP)= -200.000  1 -1    93
             APW+lo
:E0_0003: E( 0)=    0.5550
             APW+lo

       K=   0.00000   0.00000   0.00000            1
:RKM  : MATRIX SIZE   185LOs:  48  RKM= 6.64  WEIGHT= 1.00  PGR:    
       EIGENVALUES ARE:
:EIG00001:      -3.1345926   -3.1345926   -3.1345926   -3.1327795   -3.1327795
:EIG00006:      -3.1327795   -2.6390570   -2.6390570   -2.6390570   -2.6314295
:EIG00011:      -2.6314295   -2.6314295    0.0919686    0.3491913    0.3491913
:EIG00016:       0.4152775    0.4152775    0.4152775    0.5634808    0.5634808
:EIG00021:       0.5634808    0.5804244    0.5804244    0.5804244    0.7280467
:EIG00026:       0.7280467    0.7550543    0.7550543    0.7596166    0.7596166
:EIG00031:       0.8171460    0.8171460    0.8171460    1.2825543    1.3441704
:EIG00036:       1.3441704    1.3441704    1.3513021    1.3513021    1.3513021
:EIG00041:       1.4533783    1.4533783    1.4533783    1.5080057    2.0116407
:EIG00046:       2.0116407    2.0916153    2.1741725    2.1741725    2.1741725
 
       ********************************************************

:KPT   :      NUMBER OF K-POINTS:   104
:GAP (global)   :    0.0    Ry =     0.0   eV (metal)
         Bandranges (emin - emax) and occupancy:
:BAN00022:  22    0.505249    0.636203  2.00000000
:BAN00023:  23    0.506218    0.662640  2.00000000
:BAN00024:  24    0.506218    0.666090  2.00000000
:BAN00025:  25    0.644733    0.728736  2.00000000
:BAN00026:  26    0.667918    0.740651  2.00022160
:BAN00027:  27    0.678927    0.755054  1.93618818
:BAN00028:  28    0.696118    0.755054  1.89561768
:BAN00029:  29    0.719471    0.773885  1.56701613
:BAN00030:  30    0.726648    0.781530  0.58429662
:BAN00031:  31    0.743062    0.817146  0.01649983
:BAN00032:  32    0.750481    0.817146  0.00015998
:BAN00033:  33    0.762329    0.833599  0.00000000
:BAN00034:  34    0.793108    1.285834  0.00000000
:BAN00035:  35    0.829142    1.344170  0.00000000
:BAN00036:  36    0.840806    1.344170  0.00000000
:BAN00037:  37    1.288972    1.484226  0.00000000
        Energy to separate low and high energystates:    0.04197


:NOE  : NUMBER OF ELECTRONS          =   58.000

:FER  : F E R M I - ENERGY(TETRAH.M.)=   0.7449948603
:GMA  : POTENTIAL AND CHARGE CUT-OFF  12.00 Ry**.5

:POS001: ATOM    1 X,Y,Z = 0.00000 0.00000 0.00000  MULT= 1  ZZ= 26.000  Fe1       

       LMMAX  5
       LM=   0 0  4 0  4 4  6 0  6 4

:CHA001: TOTAL VALENCE CHARGE INSIDE SPHERE   1 =  13.3263    (RMT=  2.4300 )
:PCS001: PARTIAL CHARGES SPHERE =  1 S,P,D,F,      D-EG,D-T2G 
:QTL001: 0.4724 6.5210 6.2609 0.0533 0.0000 0.0000 0.0000 2.4600 3.8009 0.0000 0.0000 0.0000
        Q-s-low E-s-low   Q-p-low E-p-low   Q-d-low E-d-low   Q-f-low E-f-low
:EPL001:  0.0011 -2.6444    5.9900 -3.1334    0.0026 -2.6400    0.0011 -2.6405
        Q-s-hi  E-s-hi    Q-p-hi  E-p-hi    Q-d-hi  E-d-hi    Q-f-hi  E-f-hi 
:EPH001:  0.4714  0.3323    0.5311  0.4861    6.2582  0.6159    0.0522  0.5617

:POS002: ATOM    2 X,Y,Z = 0.50000 0.00000 0.00000  MULT= 1  ZZ= 26.000  Fe2       

       LMMAX  5
       LM=   0 0  4 0  4 4  6 0  6 4

:CHA002: TOTAL VALENCE CHARGE INSIDE SPHERE   2 =  13.3263    (RMT=  2.4300 )
:PCS002: PARTIAL CHARGES SPHERE =  2 S,P,D,F,      D-EG,D-T2G 
:QTL002: 0.4724 6.5210 6.2608 0.0533 0.0000 0.0000 0.0000 2.4599 3.8009 0.0000 0.0000 0.0000
        Q-s-low E-s-low   Q-p-low E-p-low   Q-d-low E-d-low   Q-f-low E-f-low
:EPL002:  0.0011 -2.6444    5.9900 -3.1334    0.0026 -2.6400    0.0011 -2.6405
        Q-s-hi  E-s-hi    Q-p-hi  E-p-hi    Q-d-hi  E-d-hi    Q-f-hi  E-f-hi 
:EPH002:  0.4714  0.3323    0.5311  0.4861    6.2582  0.6159    0.0522  0.5617

:POS003: ATOM    3 X,Y,Z = 0.25000 0.25000 0.25000  MULT= 2  ZZ= 45.000  Rh1       

       LMMAX  6
       LM=   0 0  4 0  4 4  6 0  6 4 -3 2

:CHA003: TOTAL VALENCE CHARGE INSIDE SPHERE   3 =  13.2168    (RMT=  2.4300 )
:PCS003: PARTIAL CHARGES SPHERE =  3 S,P,D,F,      D-EG,D-T2G 
:QTL003: 0.3735 6.3463 6.4387 0.0463 0.0000 0.0000 0.0000 2.4596 3.9791 0.0000 0.0000 0.0000
        Q-s-low E-s-low   Q-p-low E-p-low   Q-d-low E-d-low   Q-f-low E-f-low
:EPL003:  0.0003 -3.0594    5.9585 -2.6358    0.0008 -3.0698    0.0004 -3.0672
        Q-s-hi  E-s-hi    Q-p-hi  E-p-hi    Q-d-hi  E-d-hi    Q-f-hi  E-f-hi 
:EPH003:  0.3732  0.3507    0.3878  0.5124    6.4379  0.5308    0.0459  0.6017

:CHA  : TOTAL VALENCE CHARGE INSIDE UNIT CELL =      58.000000

:SUM  : SUM OF EIGENVALUES =         -50.819589108


        1.ATOM      Fe1                   5 CORE STATES
:1S 001: 1S                -513.009211700 Ry
:2S 001: 2S                 -58.916028068 Ry
:2PP001: 2P*                -50.619938627 Ry
:2P 001: 2P                 -49.702394973 Ry
:3S 001: 3S                  -5.621685343 Ry

        2.ATOM      Fe2                   5 CORE STATES
:1S 002: 1S                -513.009211401 Ry
:2S 002: 2S                 -58.916027776 Ry
:2PP002: 2P*                -50.619938333 Ry
:2P 002: 2P                 -49.702394680 Ry
:3S 002: 3S                  -5.621685136 Ry

        3.ATOM      Rh1                  10 CORE STATES
:1S 003: 1S               -1691.327516605 Ry
:2S 003: 2S                -244.217970981 Ry
:2PP003: 2P*               -226.028188349 Ry
:2P 003: 2P                -215.398858180 Ry
:3S 003: 3S                 -42.751843449 Ry
:3PP003: 3P*                -35.633832981 Ry
:3P 003: 3P                 -33.805228620 Ry
:3DD003: 3D*                -21.207458636 Ry
:3D 003: 3D                 -20.846834748 Ry
:4S 003: 4S                  -4.986863042 Ry
:CINT001 Core Integral Atom   1   11.999213
:CINT002 Core Integral Atom   2   11.999213
:CINT003 Core Integral Atom   3   29.997290

       DENSITY AT NUCLEUS
        JATOM        VALENCE       SEMI-CORE          CORE           TOTAL
:RTO001:   1        6.951082        0.000000    15302.003427    15308.954509
:RTO002:   2        6.951083        0.000000    15302.003425    15308.954508
:RTO003:   3       24.361582        0.000000   155311.796676   155336.158258
     
       CHARGES OF NEW CHARGE DENSITY
:NTO   : INTERSTITIAL CHARGE =     4.913779
:NPC   : PW Pseudocharge     =    11.403743
:NTO001: CHARGE SPHERE  1    =    25.325532
:NTO002: CHARGE SPHERE  2    =    25.325502
:NTO003: CHARGE SPHERE  3    =    43.214066

:NEC01: NUCLEAR AND ELECTRONIC CHARGE    142.00000   141.99294
     
       CHARGES OF OLD CHARGE DENSITY
:OTO   : INTERSTITIAL CHARGE =     3.901743
:OPC   : PW Pseudocharge     =    12.027440
:OTO001: CHARGE SPHERE  1    =    25.258186
:OTO002: CHARGE SPHERE  2    =    25.258186
:OTO003: CHARGE SPHERE  3    =    43.790943

:NEC02: NUCLEAR AND ELECTRONIC CHARGE    142.00000   142.00000
     
       CONVERGENCE TEST
:DTO001: DIFFERENCE IN SPHERE  1 =  0.3848470
:DTO002: DIFFERENCE IN SPHERE  2 =  0.3848762
:DTO003: DIFFERENCE IN SPHERE  3 =  0.6541757

:DIS  :  CHARGE DISTANCE       ( 0.6541757 for atom    3 spin 1)      0.5195186
 PW Mixed is           49
 
******************************************************
* MULTISECANT MIXING VER9 RELEASE 10.4.0              *
* Standard Mode with controls                        *
* Fixed density scale                                *
* Regularization       1.000E-04                     *
* Trust Upper Limit    5.000E+00                     *
* Max Number of Memory Steps    8                    *
******************************************************
 
:PWTMP   1.1765E+02  4.5917E+02  3.5807E+02
:PLANE:  PW TOTAL      1.8357 DISTAN   3.92E-01  2.14E+01 %
:CHARG:  CLM/ATOM    299.8762 DISTAN   3.63E-01  1.21E-01 %
 
Step History
        DMIX         DMIXT        Red     Pred      Trust     Lambda    MagRel    MagAbs     Beta
  1   3.5000E-02   3.5000E-02 -1.00E+00  1.00E+00 -1.00E+01  1.00E+00  3.50E-02  3.50E-02  1.00E+00
  2   2.5000E-02   2.5000E-02  5.93E-01  1.00E+00 -1.00E+01  1.00E+00  2.50E-02  5.93E-02  1.00E+00
  3   3.7449E-02   3.7449E-02  9.42E-01  1.00E+00 -1.00E+01  1.71E-01  3.74E-02  5.27E-02  1.00E+00
  4   5.2261E-02   5.2261E-02 -1.00E+00  8.97E-01  2.53E-01  1.00E+00  6.83E-02  9.04E-02  8.86E-01
:JACOBIANS    8.652E-01   1.146E-01
  
:NORMS:  1/Froebius, Min, Max, Used   0.7951E+00  0.4065E+00  0.9895E+00  0.9700E+00
:INFO :  Number of Memory Steps    3 Skipping    0
:INFO :  SLambda=    1.4988619387  Max    1.4988619387
:PREDicted Charge, CTotal, PW Trust    1.344E-01   3.037E-01   1.172E-01
:PREDicted DMix, Beta, BLim   2.2993E-01  2.1911E+00  4.2062E-01

Eigenvalues, unscaled except for SY+YY
   #     SY Real        SY Imag          SS             YY         SY+YY Real      SY+YY Imag
   1   1.829656E+00   0.000000E+00   1.816062E+00   1.930006E+00   4.651446E+00   0.000000E+00
   2  -2.597115E-15   0.000000E+00   8.056471E-02   1.069514E+00   4.832212E-04   0.000000E+00
   3   2.540172E-01   0.000000E+00   6.327104E-17   4.797099E-04   1.471209E+00   0.000000E+00
 
:INFO :  Singular value  4.652E+00 Weight  1.000E+00 Projection -8.174E-02
:INFO :  Singular value  1.471E+00 Weight  1.000E+00 Projection -8.490E-01
:INFO :  Singular value  4.832E-04 Weight  8.624E-01 Projection  2.226E+01
:RANK :  ACTIVE   2.86/3  =  95.41 % ; YY RANK   2.86/3  =  95.36 %
 
:BLIM :  VZERO Control Off
:TRUST:  Step 3.77E-01  Charge 8.25E-02 (e) CTO  2.75E-01 (e) PW  3.85E-01 (e)
:DTRUS:  Lambda    3.250E+01 Increment    7.276E-12 Iterations   140 DMIX    9.012E-02
:INFOA:  Angle SubSpace to MSR1      6.66
:DIRM :  MEMORY  3/8  SCALE   1.000 RED  0.87 PRED  0.90 NEXT  0.63 
:INFO :  Limited by Atoms F by Step T

:TRAVE:  Charge 5.41E-02 (e) CTO  1.02E-01 (e) PW  4.43E-02 (e)
:DIRP :  |MSR1|= 6.453E-02 |PRATT|= 3.923E-01 ANGLE=   7.5 DEGREES
:DIRQ :  |MSR1|= 1.206E-01 |PRATT|= 1.088E+00 ANGLE=  30.1 DEGREES
:DIRT :  |MSR1|= 1.368E-01 |PRATT|= 1.156E+00 ANGLE=  28.8 DEGREES
:MIX  :   MSE1   REGULARIZATION:  1.93E-04 GREED: 0.13065  LMStep 0.49  0.1183 Charge         
     
       CHARGES OF MIXED CHARGE DENSITY
:CTO   : INTERSTITIAL CHARGE =     4.047512
:CPC   : PW Pseudocharge     =    11.872941
:CTO001: CHARGE SPHERE  1    =    25.267807
:CTO002: CHARGE SPHERE  2    =    25.267795
:CTO003: CHARGE SPHERE  3    =    43.708443

:NEC03: NUCLEAR AND ELECTRONIC CHARGE    142.00000   142.00000

PW CHANGE     H    K    L      Current       Change    Residue
:PTO001:      0    0    0  4.44618005E-02 -2.438E-05  1.150E-03
:PTO002:     -1   -1   -1  1.20315805E-08  1.219E-08  2.908E-08
:PTO003:      0    0   -2 -1.69607355E-02  1.090E-03  6.519E-03
:PTO004:      0   -2   -2  3.76776576E-03 -1.480E-03 -8.415E-03
:PTO005:     -1   -1   -3 -1.19668043E-09 -1.109E-09 -1.652E-09
:PTO006:     -2   -2   -2  5.32347356E-03 -3.227E-04 -1.994E-03
:PTO007:      0    0   -4 -1.80620770E-02  1.218E-03  6.971E-03
:PTO008:     -1   -3   -3 -1.96783157E-08 -1.993E-08 -4.741E-08
:PTO009:      0   -2   -4  2.10285411E-02 -2.065E-03 -1.249E-02
:PTO010:     -2   -2   -4 -5.03598966E-02  5.964E-03  3.656E-02
:PTO011:     -3   -3   -3 -5.82336290E-09 -5.892E-09 -1.396E-08
:PTO012:     -1   -1   -5  5.15021930E-09  5.230E-09  1.257E-08

:ENE  : ********** TOTAL ENERGY IN Ry =       -24232.17652297

 Flat Integration
 New Mode for Coulomb Integral
 Consistent 3/8+Simpson combinations
 Extension of core to zero
 LDM version in phi
 Fifth-order quadrature in outwin


            ---------
:ITE005:  5. ITERATION
            ---------

:NATO :    3 INDEPENDENT AND    4 TOTAL ATOMS IN UNITCELL
       SUBSTANCE: FeRh                                                        

       LATTICE                      = F   
:POT  : POTENTIAL OPTION EX_PBE EC_PBE VX_PBE VC_PBE
:LAT  : LATTICE CONSTANTS= 11.27222 11.27222 11.27222    1.571    1.571    1.571
:VOL  : UNIT CELL VOLUME =     358.07036
       MODE OF CALCULATION IS       = RELA
       NON-SPINPOLARIZED CALCULATION
:IFFT  : FFT-parameters:   90   90   90 Factor: 2.00


   CONVERGENCE PARAMETER FOR PSEUDOCHARGE: NCON=  9
   MAXIMAL VALUE OF RMT(JATOM)*ABSK(NKK) : RK  =29.05063


:VKCOUL :  VK-COUL convergence: 0.581E-07
       ATOMNUMBER=  1 Fe1        VCOUL-ZERO =  0.63390E+00
       ATOMNUMBER=  2 Fe2        VCOUL-ZERO =  0.63390E+00
       ATOMNUMBER=  3 Rh1        VCOUL-ZERO =  0.59070E+00
:FIT001: LUSE= 13 SIGMA OF V-XC FIT FOR ATOM  1  0.3921258E-02
:FIT001: LUSE= 13 SIGMA OF V-XC FIT FOR ATOM  1  0.3921258E-02
:FIT002: LUSE= 13 SIGMA OF V-XC FIT FOR ATOM  2  0.3921249E-02
:FIT002: LUSE= 13 SIGMA OF V-XC FIT FOR ATOM  2  0.3921249E-02
:FIT003: LUSE= 13 SIGMA OF V-XC FIT FOR ATOM  3  0.2946877E-03
:FIT003: LUSE= 13 SIGMA OF V-XC FIT FOR ATOM  3  0.2946877E-03
:DEN  : DENSITY INTEGRAL  =         -9870.97749185   (Ry)
       ELS_POTENTIAL_AT Z=0 and Z=0.5:  -0.16772  -0.16772
       ELS_POTENTIAL_AT Y=0 and Y=0.5:   0.00000   0.00000
:VZERO:v0,v0c,v0x  -0.73193  -0.16772  -0.56421 v5,v5c,v5x  -0.73193  -0.16772  -0.56421
:VZERY:v0,v0c,v0x  -0.78896   0.00000  -0.78896 v5,v5c,v5x  -0.78896   0.00000  -0.78896
:VZERX:v0,v0c,v0x  -0.78896   0.00000  -0.78896 v5,v5c,v5x  -0.78896   0.00000  -0.78896
:LMAX-WF:   10   Non-Spherical LMAX:   4

          ATOMIC SPHERE DEPENDENT PARAMETERS FOR ATOM  Fe1       
:e__0001: OVERALL ENERGY PARAMETER IS    0.5483
          OVERALL BASIS SET ON ATOM IS LAPW
:E1_0001: E( 1)=    0.5483
             APW+lo
:E1_0001: E( 1)=   -3.1625   E(BOTTOM)=   -3.195   E(TOP)=   -3.130  1  2   180
             LOCAL ORBITAL
:E2_0001: E( 2)=    0.6250   E(BOTTOM)=    0.384   E(TOP)=    0.866  0  1   130
             APW+lo
:E0_0001: E( 0)=    0.5483
             APW+lo

          ATOMIC SPHERE DEPENDENT PARAMETERS FOR ATOM  Fe2       
:e__0002: OVERALL ENERGY PARAMETER IS    0.5483
          OVERALL BASIS SET ON ATOM IS LAPW
:E1_0002: E( 1)=    0.5483
             APW+lo
:E1_0002: E( 1)=   -3.1625   E(BOTTOM)=   -3.195   E(TOP)=   -3.130  1  2   180
             LOCAL ORBITAL
:E2_0002: E( 2)=    0.6250   E(BOTTOM)=    0.384   E(TOP)=    0.866  0  1   126
             APW+lo
:E0_0002: E( 0)=    0.5483
             APW+lo

          ATOMIC SPHERE DEPENDENT PARAMETERS FOR ATOM  Rh1       
:e__0003: OVERALL ENERGY PARAMETER IS    0.5483
          OVERALL BASIS SET ON ATOM IS LAPW
:E1_0003: E( 1)=    0.5483
             APW+lo
:E1_0003: E( 1)=   -2.7069   E(BOTTOM)=   -2.803   E(TOP)=   -2.611  2  3   163
             LOCAL ORBITAL
:E2_0003: E( 2)=    0.5483   E(BOTTOM)=    0.125   E(TOP)= -200.000  1 -1    94
             APW+lo
:E0_0003: E( 0)=    0.5483
             APW+lo

       K=   0.00000   0.00000   0.00000            1
:RKM  : MATRIX SIZE   185LOs:  48  RKM= 6.64  WEIGHT= 1.00  PGR:    
       EIGENVALUES ARE:
:EIG00001:      -3.1565379   -3.1565379   -3.1565379   -3.1547906   -3.1547906
:EIG00006:      -3.1547906   -2.6902115   -2.6902115   -2.6902115   -2.6828560
:EIG00011:      -2.6828560   -2.6828560    0.0841166    0.3262455    0.3262455
:EIG00016:       0.3895042    0.3895042    0.3895042    0.5489333    0.5489333
:EIG00021:       0.5489333    0.5517508    0.5517508    0.5517508    0.7039952
:EIG00026:       0.7039952    0.7179173    0.7179173    0.7371663    0.7371663
:EIG00031:       0.7886371    0.7886371    0.7886371    1.2777909    1.3272252
:EIG00036:       1.3272252    1.3272252    1.3420764    1.3420764    1.3420764
:EIG00041:       1.4320189    1.4320189    1.4320189    1.4906688    1.9914052
:EIG00046:       1.9914052    2.0804629    2.1665918    2.1665918    2.1665918
 
       ********************************************************

:KPT   :      NUMBER OF K-POINTS:   104
:GAP (global)   :    0.0    Ry =     0.0   eV (metal)
         Bandranges (emin - emax) and occupancy:
:BAN00021:  21    0.478755    0.550879  2.00000000
:BAN00022:  22    0.478755    0.609260  2.00000000
:BAN00023:  23    0.483154    0.637301  2.00000000
:BAN00024:  24    0.483158    0.649612  2.00000000
:BAN00025:  25    0.627631    0.704203  2.00000000
:BAN00026:  26    0.650797    0.710913  2.00000000
:BAN00027:  27    0.661250    0.717917  2.00000000
:BAN00028:  28    0.673519    0.719783  1.99967641
:BAN00029:  29    0.698278    0.749055  1.52894036
:BAN00030:  30    0.705869    0.752808  0.46698809
:BAN00031:  31    0.709330    0.788637  0.00439514
:BAN00032:  32    0.731420    0.788637  0.00000000
:BAN00033:  33    0.737616    0.811141  0.00000000
:BAN00034:  34    0.768065    1.277791  0.00000000
:BAN00035:  35    0.800320    1.327225  0.00000000
:BAN00036:  36    0.807697    1.327225  0.00000000
        Energy to separate low and high energystates:    0.03412


:NOE  : NUMBER OF ELECTRONS          =   58.000

:FER  : F E R M I - ENERGY(TETRAH.M.)=   0.7183488602
:GMA  : POTENTIAL AND CHARGE CUT-OFF  12.00 Ry**.5

:POS001: ATOM    1 X,Y,Z = 0.00000 0.00000 0.00000  MULT= 1  ZZ= 26.000  Fe1       

       LMMAX  5
       LM=   0 0  4 0  4 4  6 0  6 4

:CHA001: TOTAL VALENCE CHARGE INSIDE SPHERE   1 =  13.0323    (RMT=  2.4300 )
:PCS001: PARTIAL CHARGES SPHERE =  1 S,P,D,F,      D-EG,D-T2G 
:QTL001: 0.4610 6.4932 6.0079 0.0513 0.0000 0.0000 0.0000 2.3021 3.7057 0.0000 0.0000 0.0000
        Q-s-low E-s-low   Q-p-low E-p-low   Q-d-low E-d-low   Q-f-low E-f-low
:EPL001:  0.0010 -2.6954    5.9901 -3.1554    0.0025 -2.6911    0.0011 -2.6917
        Q-s-hi  E-s-hi    Q-p-hi  E-p-hi    Q-d-hi  E-d-hi    Q-f-hi  E-f-hi 
:EPH001:  0.4600  0.3188    0.5031  0.4638    6.0053  0.5962    0.0502  0.5306

:POS002: ATOM    2 X,Y,Z = 0.50000 0.00000 0.00000  MULT= 1  ZZ= 26.000  Fe2       

       LMMAX  5
       LM=   0 0  4 0  4 4  6 0  6 4

:CHA002: TOTAL VALENCE CHARGE INSIDE SPHERE   2 =  13.0335    (RMT=  2.4300 )
:PCS002: PARTIAL CHARGES SPHERE =  2 S,P,D,F,      D-EG,D-T2G 
:QTL002: 0.4610 6.4932 6.0090 0.0513 0.0000 0.0000 0.0000 2.3035 3.7055 0.0000 0.0000 0.0000
        Q-s-low E-s-low   Q-p-low E-p-low   Q-d-low E-d-low   Q-f-low E-f-low
:EPL002:  0.0010 -2.6954    5.9901 -3.1554    0.0025 -2.6911    0.0011 -2.6917
        Q-s-hi  E-s-hi    Q-p-hi  E-p-hi    Q-d-hi  E-d-hi    Q-f-hi  E-f-hi 
:EPH002:  0.4600  0.3188    0.5031  0.4638    6.0065  0.5963    0.0502  0.5306

:POS003: ATOM    3 X,Y,Z = 0.25000 0.25000 0.25000  MULT= 2  ZZ= 45.000  Rh1       

       LMMAX  6
       LM=   0 0  4 0  4 4  6 0  6 4 -3 2

:CHA003: TOTAL VALENCE CHARGE INSIDE SPHERE   3 =  13.5764    (RMT=  2.4300 )
:PCS003: PARTIAL CHARGES SPHERE =  3 S,P,D,F,      D-EG,D-T2G 
:QTL003: 0.3723 6.3360 6.8126 0.0440 0.0000 0.0000 0.0000 2.7154 4.0972 0.0000 0.0000 0.0000
        Q-s-low E-s-low   Q-p-low E-p-low   Q-d-low E-d-low   Q-f-low E-f-low
:EPL003:  0.0003 -3.0886    5.9599 -2.6871    0.0008 -3.0977    0.0004 -3.0947
        Q-s-hi  E-s-hi    Q-p-hi  E-p-hi    Q-d-hi  E-d-hi    Q-f-hi  E-f-hi 
:EPH003:  0.3720  0.3384    0.3761  0.4964    6.8118  0.5053    0.0437  0.5814

:CHA  : TOTAL VALENCE CHARGE INSIDE UNIT CELL =      58.000000

:SUM  : SUM OF EIGENVALUES =         -52.467747120


        1.ATOM      Fe1                   5 CORE STATES
:1S 001: 1S                -513.049380641 Ry
:2S 001: 2S                 -58.957095651 Ry
:2PP001: 2P*                -50.661179749 Ry
:2P 001: 2P                 -49.743612809 Ry
:3S 001: 3S                  -5.645227521 Ry

        2.ATOM      Fe2                   5 CORE STATES
:1S 002: 1S                -513.049404629 Ry
:2S 002: 2S                 -58.957118833 Ry
:2PP002: 2P*                -50.661203136 Ry
:2P 002: 2P                 -49.743636176 Ry
:3S 002: 3S                  -5.645243943 Ry

        3.ATOM      Rh1                  10 CORE STATES
:1S 003: 1S               -1691.403161787 Ry
:2S 003: 2S                -244.292927378 Ry
:2PP003: 2P*               -226.103417533 Ry
:2P 003: 2P                -215.474024373 Ry
:3S 003: 3S                 -42.821307111 Ry
:3PP003: 3P*                -35.703436512 Ry
:3P 003: 3P                 -33.874629934 Ry
:3DD003: 3D*                -21.277481533 Ry
:3D 003: 3D                 -20.916786527 Ry
:4S 003: 4S                  -5.042047777 Ry
:CINT001 Core Integral Atom   1   11.999227
:CINT002 Core Integral Atom   2   11.999227
:CINT003 Core Integral Atom   3   29.997362

       DENSITY AT NUCLEUS
        JATOM        VALENCE       SEMI-CORE          CORE           TOTAL
:RTO001:   1        6.743608        0.000000    15302.388446    15309.132054
:RTO002:   2        6.743567        0.000000    15302.388603    15309.132170
:RTO003:   3       24.248384        0.000000   155313.381499   155337.629883
     
       CHARGES OF NEW CHARGE DENSITY
:NTO   : INTERSTITIAL CHARGE =     4.781222
:NPC   : PW Pseudocharge     =    11.222439
:NTO001: CHARGE SPHERE  1    =    25.031572
:NTO002: CHARGE SPHERE  2    =    25.032737
:NTO003: CHARGE SPHERE  3    =    43.573791

:NEC01: NUCLEAR AND ELECTRONIC CHARGE    142.00000   141.99311
     
       CHARGES OF OLD CHARGE DENSITY
:OTO   : INTERSTITIAL CHARGE =     4.047512
:OPC   : PW Pseudocharge     =    11.872941
:OTO001: CHARGE SPHERE  1    =    25.267807
:OTO002: CHARGE SPHERE  2    =    25.267795
:OTO003: CHARGE SPHERE  3    =    43.708443

:NEC02: NUCLEAR AND ELECTRONIC CHARGE    142.00000   142.00000
     
       CONVERGENCE TEST
:DTO001: DIFFERENCE IN SPHERE  1 =  0.5330130
:DTO002: DIFFERENCE IN SPHERE  2 =  0.5317574
:DTO003: DIFFERENCE IN SPHERE  3 =  0.2725793

:DIS  :  CHARGE DISTANCE       ( 0.5330130 for atom    1 spin 1)      0.4024822
 PW Mixed is           49
 
******************************************************
* MULTISECANT MIXING VER9 RELEASE 10.4.0              *
* Standard Mode with controls                        *
* Fixed density scale                                *
* Regularization       1.000E-04                     *
* Trust Upper Limit    5.000E+00                     *
* Max Number of Memory Steps    8                    *
******************************************************
 
:PWTMP   1.1765E+02  4.5917E+02  3.5807E+02
:PLANE:  PW TOTAL      1.8136 DISTAN   3.13E-01  1.72E+01 %
:CHARG:  CLM/ATOM    299.8728 DISTAN   2.88E-01  9.59E-02 %
 
Step History
        DMIX         DMIXT        Red     Pred      Trust     Lambda    MagRel    MagAbs     Beta
  1   3.5000E-02   3.5000E-02 -1.00E+00  1.00E+00 -1.00E+01  1.00E+00  3.50E-02  3.50E-02  1.00E+00
  2   2.5000E-02   2.5000E-02  5.93E-01  1.00E+00 -1.00E+01  1.00E+00  2.50E-02  5.93E-02  1.00E+00
  3   3.7449E-02   3.7449E-02  9.42E-01  1.00E+00 -1.00E+01  1.71E-01  3.74E-02  5.27E-02  1.00E+00
  4   5.2261E-02   5.2261E-02  8.73E-01  8.97E-01  2.53E-01  1.50E+00  6.83E-02  9.04E-02  8.86E-01
  5   1.3065E-01   9.0120E-02 -1.00E+00  6.32E-01  3.77E-01  1.00E+00  1.18E-01  1.37E-01  1.00E+00
:JACOBIANS    9.431E-01   2.229E-01
  
:NORMS:  1/Froebius, Min, Max, Used   0.5505E+00  0.3555E+00  0.9977E+00  0.5801E+00
:INFO :  Number of Memory Steps    4 Skipping    0
:INFO :  SLambda=    1.3248560089  Max    1.3248560089
:PREDicted Charge, CTotal, PW Trust    2.026E-01   4.067E-01   6.102E-02
:PREDicted DMix, Beta, BLim   1.0145E-01  1.4539E+00  4.3507E-01

Eigenvalues, unscaled except for SY+YY
   #     SY Real        SY Imag          SS             YY         SY+YY Real      SY+YY Imag
   1   1.138281E+00   0.000000E+00   1.061145E+00   3.152984E+00   4.259245E+00   0.000000E+00
   2   3.230608E-01   0.000000E+00   1.508108E-01   7.814371E-01   1.603582E+00   0.000000E+00
   3  -8.164703E-16   0.000000E+00   4.428148E-04   6.548123E-02   1.053638E-04   0.000000E+00
   4   6.102119E-03   0.000000E+00  -7.587836E-17   9.733146E-05   8.121963E-02   0.000000E+00
 
:INFO :  Singular value  4.259E+00 Weight  1.000E+00 Projection -1.545E-01
:INFO :  Singular value  1.604E+00 Weight  1.000E+00 Projection -2.022E-01
:INFO :  Singular value  8.122E-02 Weight  1.000E+00 Projection  3.246E+00
:INFO :  Singular value  1.054E-04 Weight  1.005E-01 Projection  4.537E-01
:RANK :  ACTIVE   3.10/4  =  77.51 % ; YY RANK   3.09/4  =  77.17 %
 
Increasing Charge by   1.292
:BLIM :  VZERO Control Off
:TRUST:  Step 4.75E-01  Charge 1.17E-01 (e) CTO  3.03E-01 (e) PW  3.85E-01 (e)
:DIRM :  MEMORY  4/8  SCALE   1.000 RED  0.79 PRED  0.63 NEXT  0.41 
:TRAVE:  Charge 8.35E-02 (e) CTO  1.85E-01 (e) PW  3.86E-02 (e)
:DIRP :  |MSR1|= 1.177E-01 |PRATT|= 3.128E-01 ANGLE=   8.3 DEGREES
:DIRQ :  |MSR1|= 2.386E-01 |PRATT|= 8.625E-01 ANGLE=  25.1 DEGREES
:DIRT :  |MSR1|= 2.660E-01 |PRATT|= 9.175E-01 ANGLE=  24.1 DEGREES
:MIX  :   MSE1   REGULARIZATION:  3.15E-04 GREED: 0.09414  Newton 1.00  0.2900                
     
       CHARGES OF MIXED CHARGE DENSITY
:CTO   : INTERSTITIAL CHARGE =     4.315878
:CPC   : PW Pseudocharge     =    11.704990
:CTO001: CHARGE SPHERE  1    =    25.246537
:CTO002: CHARGE SPHERE  2    =    25.246644
:CTO003: CHARGE SPHERE  3    =    43.595470

:NEC03: NUCLEAR AND ELECTRONIC CHARGE    142.00000   142.00000

PW CHANGE     H    K    L      Current       Change    Residue
:PTO001:      0    0    0  4.47422347E-02  2.804E-04  2.968E-04
:PTO002:     -1   -1   -1 -1.55062752E-07 -1.671E-07 -1.607E-06
:PTO003:      0    0   -2 -1.55515942E-02  1.409E-03  3.775E-03
:PTO004:      0   -2   -2  2.72733072E-03 -1.040E-03 -6.079E-03
:PTO005:     -1   -1   -3  6.47828980E-08  6.598E-08  6.045E-07
:PTO006:     -2   -2   -2  4.57170865E-03 -7.518E-04 -1.118E-03
:PTO007:      0    0   -4 -1.55276752E-02  2.534E-03  5.940E-03
:PTO008:     -1   -3   -3  1.67023429E-07  1.867E-07  1.850E-06
:PTO009:      0   -2   -4  1.71962323E-02 -3.832E-03 -9.200E-03
:PTO010:     -2   -2   -4 -3.90019818E-02  1.136E-02  3.023E-02
:PTO011:     -3   -3   -3  9.40701873E-08  9.989E-08  9.492E-07
:PTO012:     -1   -1   -5 -1.30377344E-07 -1.355E-07 -1.264E-06

:ENE  : ********** TOTAL ENERGY IN Ry =       -24232.12166055

 Flat Integration
 New Mode for Coulomb Integral
 Consistent 3/8+Simpson combinations
 Extension of core to zero
 LDM version in phi
 Fifth-order quadrature in outwin


            ---------
:ITE006:  6. ITERATION
            ---------

:NATO :    3 INDEPENDENT AND    4 TOTAL ATOMS IN UNITCELL
       SUBSTANCE: FeRh                                                        

       LATTICE                      = F   
:POT  : POTENTIAL OPTION EX_PBE EC_PBE VX_PBE VC_PBE
:LAT  : LATTICE CONSTANTS= 11.27222 11.27222 11.27222    1.571    1.571    1.571
:VOL  : UNIT CELL VOLUME =     358.07036
       MODE OF CALCULATION IS       = RELA
       NON-SPINPOLARIZED CALCULATION
:IFFT  : FFT-parameters:   90   90   90 Factor: 2.00


   CONVERGENCE PARAMETER FOR PSEUDOCHARGE: NCON=  9
   MAXIMAL VALUE OF RMT(JATOM)*ABSK(NKK) : RK  =29.05063


:VKCOUL :  VK-COUL convergence: 0.653E-07
       ATOMNUMBER=  1 Fe1        VCOUL-ZERO =  0.64643E+00
       ATOMNUMBER=  2 Fe2        VCOUL-ZERO =  0.64646E+00
       ATOMNUMBER=  3 Rh1        VCOUL-ZERO =  0.59406E+00
:FIT001: LUSE= 13 SIGMA OF V-XC FIT FOR ATOM  1  0.2819376E-02
:FIT001: LUSE= 13 SIGMA OF V-XC FIT FOR ATOM  1  0.2819376E-02
:FIT002: LUSE= 13 SIGMA OF V-XC FIT FOR ATOM  2  0.2819473E-02
:FIT002: LUSE= 13 SIGMA OF V-XC FIT FOR ATOM  2  0.2819473E-02
:FIT003: LUSE= 13 SIGMA OF V-XC FIT FOR ATOM  3  0.5436062E-03
:FIT003: LUSE= 13 SIGMA OF V-XC FIT FOR ATOM  3  0.5436062E-03
:DEN  : DENSITY INTEGRAL  =         -9857.24195335   (Ry)
       ELS_POTENTIAL_AT Z=0 and Z=0.5:  -0.14378  -0.14378
       ELS_POTENTIAL_AT Y=0 and Y=0.5:   0.00000   0.00000
:VZERO:v0,v0c,v0x  -0.75020  -0.14378  -0.60642 v5,v5c,v5x  -0.75020  -0.14378  -0.60642
:VZERY:v0,v0c,v0x  -0.79634   0.00000  -0.79634 v5,v5c,v5x  -0.79634   0.00000  -0.79634
:VZERX:v0,v0c,v0x  -0.79634   0.00000  -0.79634 v5,v5c,v5x  -0.79634   0.00000  -0.79634
:LMAX-WF:   10   Non-Spherical LMAX:   4

          ATOMIC SPHERE DEPENDENT PARAMETERS FOR ATOM  Fe1       
:e__0001: OVERALL ENERGY PARAMETER IS    0.5283
          OVERALL BASIS SET ON ATOM IS LAPW
:E1_0001: E( 1)=    0.5283
             APW+lo
:E1_0001: E( 1)=   -3.2496   E(BOTTOM)=   -3.280   E(TOP)=   -3.219  1  2   172
             LOCAL ORBITAL
:E2_0001: E( 2)=    0.5566   E(BOTTOM)=    0.330   E(TOP)=    0.783  0  1   124
             APW+lo
:E0_0001: E( 0)=    0.5283
             APW+lo

          ATOMIC SPHERE DEPENDENT PARAMETERS FOR ATOM  Fe2       
:e__0002: OVERALL ENERGY PARAMETER IS    0.5283
          OVERALL BASIS SET ON ATOM IS LAPW
:E1_0002: E( 1)=    0.5283
             APW+lo
:E1_0002: E( 1)=   -3.2494   E(BOTTOM)=   -3.280   E(TOP)=   -3.219  1  2   167
             LOCAL ORBITAL
:E2_0002: E( 2)=    0.5567   E(BOTTOM)=    0.330   E(TOP)=    0.783  0  1   122
             APW+lo
:E0_0002: E( 0)=    0.5283
             APW+lo

          ATOMIC SPHERE DEPENDENT PARAMETERS FOR ATOM  Rh1       
:e__0003: OVERALL ENERGY PARAMETER IS    0.5283
          OVERALL BASIS SET ON ATOM IS LAPW
:E1_0003: E( 1)=    0.5283
             APW+lo
:E1_0003: E( 1)=   -2.7827   E(BOTTOM)=   -2.876   E(TOP)=   -2.690  2  3   152
             LOCAL ORBITAL
:E2_0003: E( 2)=    0.5091   E(BOTTOM)=    0.079   E(TOP)=    0.939  1  2   139
             APW+lo
:E0_0003: E( 0)=    0.5283
             APW+lo

       K=   0.00000   0.00000   0.00000            1
:RKM  : MATRIX SIZE   185LOs:  48  RKM= 6.64  WEIGHT= 1.00  PGR:    
       EIGENVALUES ARE:
:EIG00001:      -3.2438601   -3.2438601   -3.2438601   -3.2422466   -3.2422466
:EIG00006:      -3.2422466   -2.7665321   -2.7665321   -2.7665321   -2.7596137
:EIG00011:      -2.7596137   -2.7596137    0.0690340    0.2839257    0.2839257
:EIG00016:       0.3489473    0.3489473    0.3489473    0.4931819    0.4931819
:EIG00021:       0.4931819    0.4943409    0.4943409    0.4943409    0.6362890
:EIG00026:       0.6362890    0.6569022    0.6569022    0.6624829    0.6624829
:EIG00031:       0.7160360    0.7160360    0.7160360    1.2581492    1.2862902
:EIG00036:       1.2862902    1.2862902    1.3231013    1.3231013    1.3231013
:EIG00041:       1.3965505    1.3965505    1.3965505    1.4654721    1.9512058
:EIG00046:       1.9512058    2.0566874    2.1549652    2.1549652    2.1549652
 
       ********************************************************

:KPT   :      NUMBER OF K-POINTS:   104
:GAP (global)   :    0.0    Ry =     0.0   eV (metal)
         Bandranges (emin - emax) and occupancy:
:BAN00021:  21    0.427433    0.494590  2.00000000
:BAN00022:  22    0.427433    0.549270  2.00000000
:BAN00023:  23    0.434604    0.575720  2.00000000
:BAN00024:  24    0.434643    0.598683  2.00000000
:BAN00025:  25    0.573588    0.636289  2.00000000
:BAN00026:  26    0.588033    0.644776  2.00000000
:BAN00027:  27    0.597253    0.656902  1.98641118
:BAN00028:  28    0.608664    0.656902  1.92535235
:BAN00029:  29    0.629478    0.679174  1.54949118
:BAN00030:  30    0.639012    0.685481  0.53801197
:BAN00031:  31    0.650939    0.719037  0.00073332
:BAN00032:  32    0.658978    0.723667  0.00000000
:BAN00033:  33    0.669035    0.738127  0.00000000
:BAN00034:  34    0.703040    1.258149  0.00000000
:BAN00035:  35    0.738232    1.286290  0.00000000
:BAN00036:  36    0.752606    1.286290  0.00000000
        Energy to separate low and high energystates:    0.01903


:NOE  : NUMBER OF ELECTRONS          =   58.000

:FER  : F E R M I - ENERGY(TETRAH.M.)=   0.6510418264
:GMA  : POTENTIAL AND CHARGE CUT-OFF  12.00 Ry**.5

:POS001: ATOM    1 X,Y,Z = 0.00000 0.00000 0.00000  MULT= 1  ZZ= 26.000  Fe1       

       LMMAX  5
       LM=   0 0  4 0  4 4  6 0  6 4

:CHA001: TOTAL VALENCE CHARGE INSIDE SPHERE   1 =  13.2908    (RMT=  2.4300 )
:PCS001: PARTIAL CHARGES SPHERE =  1 S,P,D,F,      D-EG,D-T2G 
:QTL001: 0.4428 6.4414 6.3416 0.0470 0.0000 0.0000 0.0000 2.5126 3.8290 0.0000 0.0000 0.0000
        Q-s-low E-s-low   Q-p-low E-p-low   Q-d-low E-d-low   Q-f-low E-f-low
:EPL001:  0.0009 -2.7715    5.9908 -3.2429    0.0024 -2.7675    0.0010 -2.7683
        Q-s-hi  E-s-hi    Q-p-hi  E-p-hi    Q-d-hi  E-d-hi    Q-f-hi  E-f-hi 
:EPH001:  0.4418  0.2908    0.4506  0.4196    6.3392  0.5368    0.0460  0.4777

:POS002: ATOM    2 X,Y,Z = 0.50000 0.00000 0.00000  MULT= 1  ZZ= 26.000  Fe2       

       LMMAX  5
       LM=   0 0  4 0  4 4  6 0  6 4

:CHA002: TOTAL VALENCE CHARGE INSIDE SPHERE   2 =  13.2816    (RMT=  2.4300 )
:PCS002: PARTIAL CHARGES SPHERE =  2 S,P,D,F,      D-EG,D-T2G 
:QTL002: 0.4428 6.4414 6.3324 0.0470 0.0000 0.0000 0.0000 2.5066 3.8258 0.0000 0.0000 0.0000
        Q-s-low E-s-low   Q-p-low E-p-low   Q-d-low E-d-low   Q-f-low E-f-low
:EPL002:  0.0009 -2.7715    5.9908 -3.2427    0.0024 -2.7675    0.0010 -2.7683
        Q-s-hi  E-s-hi    Q-p-hi  E-p-hi    Q-d-hi  E-d-hi    Q-f-hi  E-f-hi 
:EPH002:  0.4418  0.2909    0.4506  0.4196    6.3300  0.5368    0.0460  0.4777

:POS003: ATOM    3 X,Y,Z = 0.25000 0.25000 0.25000  MULT= 2  ZZ= 45.000  Rh1       

       LMMAX  6
       LM=   0 0  4 0  4 4  6 0  6 4 -3 2

:CHA003: TOTAL VALENCE CHARGE INSIDE SPHERE   3 =  13.4916    (RMT=  2.4300 )
:PCS003: PARTIAL CHARGES SPHERE =  3 S,P,D,F,      D-EG,D-T2G 
:QTL003: 0.3581 6.2942 6.7892 0.0393 0.0000 0.0000 0.0000 2.6695 4.1197 0.0000 0.0000 0.0000
        Q-s-low E-s-low   Q-p-low E-p-low   Q-d-low E-d-low   Q-f-low E-f-low
:EPL003:  0.0003 -3.1748    5.9619 -2.7636    0.0007 -3.1841    0.0004 -3.1808
        Q-s-hi  E-s-hi    Q-p-hi  E-p-hi    Q-d-hi  E-d-hi    Q-f-hi  E-f-hi 
:EPH003:  0.3578  0.3072    0.3322  0.4492    6.7885  0.4515    0.0389  0.5226

:CHA  : TOTAL VALENCE CHARGE INSIDE UNIT CELL =      58.000000

:SUM  : SUM OF EIGENVALUES =         -56.149075873


        1.ATOM      Fe1                   5 CORE STATES
:1S 001: 1S                -513.200923015 Ry
:2S 001: 2S                 -59.106261866 Ry
:2PP001: 2P*                -50.811548733 Ry
:2P 001: 2P                 -49.893853820 Ry
:3S 001: 3S                  -5.737583122 Ry

        2.ATOM      Fe2                   5 CORE STATES
:1S 002: 1S                -513.200721590 Ry
:2S 002: 2S                 -59.106067397 Ry
:2PP002: 2P*                -50.811352520 Ry
:2P 002: 2P                 -49.893657778 Ry
:3S 002: 3S                  -5.737445006 Ry

        3.ATOM      Rh1                  10 CORE STATES
:1S 003: 1S               -1691.523218307 Ry
:2S 003: 2S                -244.411627377 Ry
:2PP003: 2P*               -226.222647185 Ry
:2P 003: 2P                -215.593132455 Ry
:3S 003: 3S                 -42.929619296 Ry
:3PP003: 3P*                -35.812013991 Ry
:3P 003: 3P                 -33.982826725 Ry
:3DD003: 3D*                -21.386850357 Ry
:3D 003: 3D                 -21.026021481 Ry
:4S 003: 4S                  -5.124889078 Ry
:CINT001 Core Integral Atom   1   11.999272
:CINT002 Core Integral Atom   2   11.999272
:CINT003 Core Integral Atom   3   29.997471

       DENSITY AT NUCLEUS
        JATOM        VALENCE       SEMI-CORE          CORE           TOTAL
:RTO001:   1        6.420798        0.000000    15303.663861    15310.084659
:RTO002:   2        6.420616        0.000000    15303.662552    15310.083168
:RTO003:   3       23.193839        0.000000   155316.125247   155339.319086
     
       CHARGES OF NEW CHARGE DENSITY
:NTO   : INTERSTITIAL CHARGE =     4.444338
:NPC   : PW Pseudocharge     =    10.670430
:NTO001: CHARGE SPHERE  1    =    25.290063
:NTO002: CHARGE SPHERE  2    =    25.280876
:NTO003: CHARGE SPHERE  3    =    43.489073

:NEC01: NUCLEAR AND ELECTRONIC CHARGE    142.00000   141.99342
     
       CHARGES OF OLD CHARGE DENSITY
:OTO   : INTERSTITIAL CHARGE =     4.315878
:OPC   : PW Pseudocharge     =    11.704990
:OTO001: CHARGE SPHERE  1    =    25.246537
:OTO002: CHARGE SPHERE  2    =    25.246644
:OTO003: CHARGE SPHERE  3    =    43.595470

:NEC02: NUCLEAR AND ELECTRONIC CHARGE    142.00000   142.00000
     
       CONVERGENCE TEST
:DTO001: DIFFERENCE IN SPHERE  1 =  0.2145316
:DTO002: DIFFERENCE IN SPHERE  2 =  0.2061307
:DTO003: DIFFERENCE IN SPHERE  3 =  0.1212389

:DIS  :  CHARGE DISTANCE       ( 0.2145316 for atom    1 spin 1)      0.1657850
 PW Mixed is           49
 
******************************************************
* MULTISECANT MIXING VER9 RELEASE 10.4.0              *
* Standard Mode with controls                        *
* Fixed density scale                                *
* Regularization       1.000E-04                     *
* Trust Upper Limit    5.000E+00                     *
* Max Number of Memory Steps    8                    *
******************************************************
 
:PWTMP   1.1765E+02  4.5917E+02  3.5807E+02
:PLANE:  PW TOTAL      1.7908 DISTAN   2.17E-01  1.21E+01 %
:CHARG:  CLM/ATOM    299.8650 DISTAN   1.21E-01  4.03E-02 %
 
Step History
        DMIX         DMIXT        Red     Pred      Trust     Lambda    MagRel    MagAbs     Beta
  1   3.5000E-02   3.5000E-02 -1.00E+00  1.00E+00 -1.00E+01  1.00E+00  3.50E-02  3.50E-02  1.00E+00
  2   2.5000E-02   2.5000E-02  5.93E-01  1.00E+00 -1.00E+01  1.00E+00  2.50E-02  5.93E-02  1.00E+00
  3   3.7449E-02   3.7449E-02  9.42E-01  1.00E+00 -1.00E+01  1.71E-01  3.74E-02  5.27E-02  1.00E+00
  4   5.2261E-02   5.2261E-02  8.73E-01  8.97E-01  2.53E-01  1.50E+00  6.83E-02  9.04E-02  8.86E-01
  5   1.3065E-01   9.0120E-02  7.93E-01  6.32E-01  3.77E-01  1.32E+00  1.18E-01  1.37E-01  1.00E+00
  6   9.4139E-02   9.4139E-02 -1.00E+00  4.07E-01  4.75E-01  1.00E+00  2.90E-01  2.66E-01  1.00E+00
:JACOBIANS    9.862E-01   2.732E-01
  
:NORMS:  1/Froebius, Min, Max, Used   0.4755E+00  0.3784E+00  0.9979E+00  0.4755E+00
:INFO :  Number of Memory Steps    5 Skipping    0
:INFO :  SLambda=    1.9872840134  Max    1.9872840134
:PREDicted Charge, CTotal, PW Trust    1.242E-01   2.863E-01   5.536E-03
:PREDicted DMix, Beta, BLim   6.9951E-02  9.7915E-01  3.0805E-01

Eigenvalues, unscaled except for SY+YY
[...]
  4   5.2261E-02   5.2261E-02  8.73E-01  8.97E-01  2.53E-01  1.50E+00  6.83E-02  9.04E-02  8.86E-01
  5   1.3065E-01   9.0120E-02  7.93E-01  6.32E-01  3.77E-01  1.32E+00  1.18E-01  1.37E-01  1.00E+00
  6   9.4139E-02   9.4139E-02  4.61E-01  4.07E-01  4.75E-01  1.99E+00  2.90E-01  2.66E-01  1.00E+00
  7   8.0216E-02   8.0216E-02  7.05E-01  7.19E-01  6.33E-01  7.73E-01  1.33E-01  5.64E-02  9.84E-01
  8   1.9766E-01   1.9766E-01  5.00E+00  9.26E-01  1.27E+00  1.16E+00  4.19E-01  1.25E-01  1.00E+00
  9   1.2080E-01   1.2080E-01  2.14E-01  2.15E-01  1.14E+00  1.29E+00  1.26E-02  3.28E-02  8.00E-01
 10   2.8000E-01   2.8000E-01  1.55E-01  1.28E-01  1.03E+00  1.93E+00  2.16E-01  1.20E-01  1.00E+00
 11   2.1308E-01   2.1308E-01 -1.00E+00  4.52E-01  1.72E+00  1.00E+00  1.69E-01  1.46E-02  1.00E+00
:JACOBIANS    1.387E+00   1.287E+00
  
:NORMS:  1/Froebius, Min, Max, Used   0.5081E+00  0.3566E+00  0.1005E+01  0.7503E+00
:INFO :  Number of Memory Steps    8 Skipping    2
:INFO :  SLambda=    2.8045872740  Max    2.8045872740
:PREDicted Charge, CTotal, PW Trust    2.943E-03   3.663E-03   2.919E-02
:PREDicted DMix, Beta, BLim   5.6989E-01  1.7724E+00  2.0609E+00

Eigenvalues, unscaled except for SY+YY
   #     SY Real        SY Imag          SS             YY         SY+YY Real      SY+YY Imag
   1   1.873093E+00   0.000000E+00   1.830019E+00   3.251191E+00   7.921620E+00   0.000000E+00
   2   6.487982E-01   0.000000E+00   2.225785E-01   2.641653E+00   3.778251E+00   0.000000E+00
   3   5.186657E-02   0.000000E+00   9.615352E-03   1.476017E+00   2.866949E+00   0.000000E+00
   4   1.848735E-02   0.000000E+00   1.338918E-03   6.094184E-01   6.805472E-01   0.000000E+00
   5   7.410300E-03   0.000000E+00   1.090629E-03   1.689295E-02   3.793054E-02   0.000000E+00
   6   1.128066E-03   0.000000E+00   3.232304E-04   3.231498E-03   5.326703E-03   0.000000E+00
   7   8.213077E-05   0.000000E+00   4.913918E-05   1.135641E-03   4.144241E-03   0.000000E+00
   8   4.256531E-04   0.000000E+00   9.142255E-06   4.605675E-04   7.796353E-04   0.000000E+00
 
:INFO :  Singular value  7.993E+00 Weight  1.000E+00 Projection -1.933E-03
:INFO :  Singular value  3.780E+00 Weight  1.000E+00 Projection  7.974E-03
:INFO :  Singular value  2.844E+00 Weight  1.000E+00 Projection  3.403E-02
:INFO :  Singular value  6.796E-01 Weight  1.000E+00 Projection -2.313E-02
:INFO :  Singular value  3.794E-02 Weight  9.999E-01 Projection  2.076E-01
:INFO :  Singular value  5.340E-03 Weight  9.963E-01 Projection -2.854E-01
:INFO :  Singular value  4.142E-03 Weight  9.939E-01 Projection -9.229E-02
:INFO :  Singular value  7.780E-04 Weight  8.513E-01 Projection  4.578E-01
:RANK :  ACTIVE   7.84/8  =  98.02 % ; YY RANK   7.58/8  =  94.77 %
 
:BLIM :  VZERO Control Off
:TRUST:  Step 2.18E+00  Charge 8.30E-02 (e) CTO  1.44E-01 (e) PW  2.40E-01 (e)
:DIRM :  MEMORY  8/8  SCALE   1.000 RED  0.79 PRED  0.45 NEXT  0.12 
:TRAVE:  Charge 9.63E-03 (e) CTO  1.55E-02 (e) PW  2.85E-02 (e)
:DIRP :  |MSR1|= 7.876E-03 |PRATT|= 7.223E-03 ANGLE=  18.7 DEGREES
:DIRQ :  |MSR1|= 1.973E-02 |PRATT|= 6.789E-02 ANGLE=  67.5 DEGREES
:DIRT :  |MSR1|= 2.125E-02 |PRATT|= 6.827E-02 ANGLE=  67.0 DEGREES
:MIX  :   MSE1   REGULARIZATION:  3.25E-04 GREED: 0.35000  Newton 1.00  0.3112                
     
       CHARGES OF MIXED CHARGE DENSITY
:CTO   : INTERSTITIAL CHARGE =     4.448444
:CPC   : PW Pseudocharge     =    10.692132
:CTO001: CHARGE SPHERE  1    =    25.195943
:CTO002: CHARGE SPHERE  2    =    25.195886
:CTO003: CHARGE SPHERE  3    =    43.579863

:NEC03: NUCLEAR AND ELECTRONIC CHARGE    142.00000   142.00000

PW CHANGE     H    K    L      Current       Change    Residue
:PTO001:      0    0    0  4.22838018E-02 -1.295E-04 -1.352E-04
:PTO002:     -1   -1   -1 -2.62176421E-06  4.048E-07 -5.099E-05
:PTO003:      0    0   -2 -1.31937463E-02  5.971E-05 -4.103E-05
:PTO004:      0   -2   -2 -3.85580915E-04  2.356E-05  9.231E-05
:PTO005:     -1   -1   -3  3.43470521E-07 -4.990E-07 -2.361E-07
:PTO006:     -2   -2   -2  4.33650973E-03 -7.743E-07  2.900E-05
:PTO007:      0    0   -4 -1.17310090E-02  1.021E-04  7.610E-05
:PTO008:     -1   -3   -3 -1.98665314E-06  1.358E-06  7.974E-05
:PTO009:      0   -2   -4  1.18383323E-02 -1.436E-04 -4.470E-05
:PTO010:     -2   -2   -4 -2.00469569E-02  6.267E-04  5.026E-04
:PTO011:     -3   -3   -3 -1.39336977E-06  4.273E-07  1.645E-05
:PTO012:     -1   -1   -5  2.29475295E-06 -2.722E-07 -6.953E-06

:ENE  : ********** TOTAL ENERGY IN Ry =       -24232.07312066

 Flat Integration
 New Mode for Coulomb Integral
 Consistent 3/8+Simpson combinations
 Extension of core to zero
 LDM version in phi
 Fifth-order quadrature in outwin


            ---------
:ITE012: 12. ITERATION
            ---------

:NATO :    3 INDEPENDENT AND    4 TOTAL ATOMS IN UNITCELL
       SUBSTANCE: FeRh                                                        

       LATTICE                      = F   
:POT  : POTENTIAL OPTION EX_PBE EC_PBE VX_PBE VC_PBE
:LAT  : LATTICE CONSTANTS= 11.27222 11.27222 11.27222    1.571    1.571    1.571
:VOL  : UNIT CELL VOLUME =     358.07036
       MODE OF CALCULATION IS       = RELA
       NON-SPINPOLARIZED CALCULATION
:IFFT  : FFT-parameters:   90   90   90 Factor: 2.00


   CONVERGENCE PARAMETER FOR PSEUDOCHARGE: NCON=  9
   MAXIMAL VALUE OF RMT(JATOM)*ABSK(NKK) : RK  =29.05063


:VKCOUL :  VK-COUL convergence: 0.797E-07
       ATOMNUMBER=  1 Fe1        VCOUL-ZERO =  0.61881E+00
       ATOMNUMBER=  2 Fe2        VCOUL-ZERO =  0.61881E+00
       ATOMNUMBER=  3 Rh1        VCOUL-ZERO =  0.57194E+00
:FIT001: LUSE= 13 SIGMA OF V-XC FIT FOR ATOM  1  0.2164038E-02
:FIT001: LUSE= 13 SIGMA OF V-XC FIT FOR ATOM  1  0.2164038E-02
:FIT002: LUSE= 13 SIGMA OF V-XC FIT FOR ATOM  2  0.2162907E-02
:FIT002: LUSE= 13 SIGMA OF V-XC FIT FOR ATOM  2  0.2162907E-02
:FIT003: LUSE= 13 SIGMA OF V-XC FIT FOR ATOM  3  0.9929451E-03
:FIT003: LUSE= 13 SIGMA OF V-XC FIT FOR ATOM  3  0.9929451E-03
:DEN  : DENSITY INTEGRAL  =         -9853.45941493   (Ry)
       ELS_POTENTIAL_AT Z=0 and Z=0.5:  -0.16137  -0.16137
       ELS_POTENTIAL_AT Y=0 and Y=0.5:   0.00000   0.00000
:VZERO:v0,v0c,v0x  -0.80685  -0.16137  -0.64548 v5,v5c,v5x  -0.80685  -0.16137  -0.64548
:VZERY:v0,v0c,v0x  -0.78936   0.00000  -0.78936 v5,v5c,v5x  -0.78936   0.00000  -0.78936
:VZERX:v0,v0c,v0x  -0.78936   0.00000  -0.78936 v5,v5c,v5x  -0.78936   0.00000  -0.78936
:LMAX-WF:   10   Non-Spherical LMAX:   4

          ATOMIC SPHERE DEPENDENT PARAMETERS FOR ATOM  Fe1       
:e__0001: OVERALL ENERGY PARAMETER IS    0.4199
          OVERALL BASIS SET ON ATOM IS LAPW
:E1_0001: E( 1)=    0.4199
             APW+lo
:E1_0001: E( 1)=   -3.2815   E(BOTTOM)=   -3.312   E(TOP)=   -3.251  1  2   167
             LOCAL ORBITAL
:E2_0001: E( 2)=    0.5234   E(BOTTOM)=    0.296   E(TOP)=    0.751  0  1   122
             APW+lo
:E0_0001: E( 0)=    0.4199
             APW+lo

          ATOMIC SPHERE DEPENDENT PARAMETERS FOR ATOM  Fe2       
:e__0002: OVERALL ENERGY PARAMETER IS    0.4199
          OVERALL BASIS SET ON ATOM IS LAPW
:E1_0002: E( 1)=    0.4199
             APW+lo
:E1_0002: E( 1)=   -3.2817   E(BOTTOM)=   -3.313   E(TOP)=   -3.251  1  2   171
             LOCAL ORBITAL
:E2_0002: E( 2)=    0.5233   E(BOTTOM)=    0.296   E(TOP)=    0.751  0  1   120
             APW+lo
:E0_0002: E( 0)=    0.4199
             APW+lo

          ATOMIC SPHERE DEPENDENT PARAMETERS FOR ATOM  Rh1       
:e__0003: OVERALL ENERGY PARAMETER IS    0.4199
          OVERALL BASIS SET ON ATOM IS LAPW
:E1_0003: E( 1)=    0.4199
             APW+lo
:E1_0003: E( 1)=   -2.8231   E(BOTTOM)=   -2.916   E(TOP)=   -2.730  2  3   153
             LOCAL ORBITAL
:E2_0003: E( 2)=    0.4709   E(BOTTOM)=    0.042   E(TOP)=    0.900  1  2   139
             APW+lo
:E0_0003: E( 0)=    0.4199
             APW+lo

       K=   0.00000   0.00000   0.00000            1
:RKM  : MATRIX SIZE   185LOs:  48  RKM= 6.64  WEIGHT= 1.00  PGR:    
       EIGENVALUES ARE:
:EIG00001:      -3.2759140   -3.2759140   -3.2759140   -3.2742994   -3.2742994
:EIG00006:      -3.2742994   -2.8069899   -2.8069899   -2.8069899   -2.8001145
:EIG00011:      -2.8001145   -2.8001145    0.0342188    0.2482444    0.2482444
:EIG00016:       0.3119159    0.3119159    0.3119159    0.4564880    0.4564880
:EIG00021:       0.4564880    0.4602762    0.4602762    0.4602762    0.6018346
:EIG00026:       0.6018346    0.6187811    0.6187811    0.6295156    0.6295156
:EIG00031:       0.6810614    0.6810614    0.6810614    1.2228770    1.2530737
:EIG00036:       1.2530737    1.2530737    1.2875263    1.2875263    1.2875263
:EIG00041:       1.3605906    1.3605906    1.3605906    1.4295148    1.9171691
:EIG00046:       1.9171691    2.0236858
 
       ********************************************************

:KPT   :      NUMBER OF K-POINTS:   104
:GAP (global)   :    0.0    Ry =     0.0   eV (metal)
         Bandranges (emin - emax) and occupancy:
:BAN00021:  21    0.391071    0.458058  2.00000000
:BAN00022:  22    0.391071    0.512650  2.00000000
:BAN00023:  23    0.398609    0.540937  2.00000000
:BAN00024:  24    0.398642    0.564660  2.00000000
:BAN00025:  25    0.538756    0.601835  2.00000000
:BAN00026:  26    0.554026    0.608200  2.00000000
:BAN00027:  27    0.563211    0.618781  1.99856813
:BAN00028:  28    0.574020    0.618781  1.98444357
:BAN00029:  29    0.595421    0.644516  1.53379441
:BAN00030:  30    0.605142    0.651526  0.48427104
:BAN00031:  31    0.616081    0.685521 -0.00107715
:BAN00032:  32    0.625625    0.688958  0.00000000
:BAN00033:  33    0.634337    0.703260  0.00000000
:BAN00034:  34    0.668143    1.222877  0.00000000
:BAN00035:  35    0.703339    1.253074  0.00000000
:BAN00036:  36    0.715211    1.253074  0.00000000
        Energy to separate low and high energystates:   -0.01578


:NOE  : NUMBER OF ELECTRONS          =   58.000

:FER  : F E R M I - ENERGY(TETRAH.M.)=   0.6158025580
:GMA  : POTENTIAL AND CHARGE CUT-OFF  12.00 Ry**.5

:POS001: ATOM    1 X,Y,Z = 0.00000 0.00000 0.00000  MULT= 1  ZZ= 26.000  Fe1       

       LMMAX  5
       LM=   0 0  4 0  4 4  6 0  6 4

:CHA001: TOTAL VALENCE CHARGE INSIDE SPHERE   1 =  13.1884    (RMT=  2.4300 )
:PCS001: PARTIAL CHARGES SPHERE =  1 S,P,D,F,      D-EG,D-T2G 
:QTL001: 0.4423 6.4393 6.2417 0.0470 0.0000 0.0000 0.0000 2.4452 3.7965 0.0000 0.0000 0.0000
        Q-s-low E-s-low   Q-p-low E-p-low   Q-d-low E-d-low   Q-f-low E-f-low
:EPL001:  0.0009 -2.8120    5.9907 -3.2748    0.0024 -2.8079    0.0010 -2.8088
        Q-s-hi  E-s-hi    Q-p-hi  E-p-hi    Q-d-hi  E-d-hi    Q-f-hi  E-f-hi 
:EPH001:  0.4413  0.2556    0.4486  0.3836    6.2393  0.5019    0.0459  0.4408

:POS002: ATOM    2 X,Y,Z = 0.50000 0.00000 0.00000  MULT= 1  ZZ= 26.000  Fe2       

       LMMAX  5
       LM=   0 0  4 0  4 4  6 0  6 4

:CHA002: TOTAL VALENCE CHARGE INSIDE SPHERE   2 =  13.1975    (RMT=  2.4300 )
:PCS002: PARTIAL CHARGES SPHERE =  2 S,P,D,F,      D-EG,D-T2G 
:QTL002: 0.4423 6.4394 6.2507 0.0469 0.0000 0.0000 0.0000 2.4515 3.7992 0.0000 0.0000 0.0000
        Q-s-low E-s-low   Q-p-low E-p-low   Q-d-low E-d-low   Q-f-low E-f-low
:EPL002:  0.0009 -2.8120    5.9907 -3.2749    0.0024 -2.8079    0.0010 -2.8088
        Q-s-hi  E-s-hi    Q-p-hi  E-p-hi    Q-d-hi  E-d-hi    Q-f-hi  E-f-hi 
:EPH002:  0.4413  0.2555    0.4487  0.3836    6.2484  0.5019    0.0459  0.4408

:POS003: ATOM    3 X,Y,Z = 0.25000 0.25000 0.25000  MULT= 2  ZZ= 45.000  Rh1       

       LMMAX  6
       LM=   0 0  4 0  4 4  6 0  6 4 -3 2

:CHA003: TOTAL VALENCE CHARGE INSIDE SPHERE   3 =  13.5875    (RMT=  2.4300 )
:PCS003: PARTIAL CHARGES SPHERE =  3 S,P,D,F,      D-EG,D-T2G 
:QTL003: 0.3584 6.2948 6.8843 0.0392 0.0000 0.0000 0.0000 2.7413 4.1431 0.0000 0.0000 0.0000
        Q-s-low E-s-low   Q-p-low E-p-low   Q-d-low E-d-low   Q-f-low E-f-low
:EPL003:  0.0003 -3.2091    5.9621 -2.8041    0.0007 -3.2181    0.0004 -3.2142
        Q-s-hi  E-s-hi    Q-p-hi  E-p-hi    Q-d-hi  E-d-hi    Q-f-hi  E-f-hi 
:EPH003:  0.3581  0.2726    0.3326  0.4147    6.8836  0.4162    0.0388  0.4880

:CHA  : TOTAL VALENCE CHARGE INSIDE UNIT CELL =      58.000000

:SUM  : SUM OF EIGENVALUES =         -58.230669873


        1.ATOM      Fe1                   5 CORE STATES
:1S 001: 1S                -513.178193442 Ry
:2S 001: 2S                 -59.101922088 Ry
:2PP001: 2P*                -50.804253145 Ry
:2P 001: 2P                 -49.886819981 Ry
:3S 001: 3S                  -5.768861938 Ry

        2.ATOM      Fe2                   5 CORE STATES
:1S 002: 1S                -513.178380309 Ry
:2S 002: 2S                 -59.102117053 Ry
:2PP002: 2P*                -50.804448421 Ry
:2P 002: 2P                 -49.887015211 Ry
:3S 002: 3S                  -5.768995222 Ry

        3.ATOM      Rh1                  10 CORE STATES
:1S 003: 1S               -1691.540434338 Ry
:2S 003: 2S                -244.435763325 Ry
:2PP003: 2P*               -226.245570487 Ry
:2P 003: 2P                -215.616322896 Ry
:3S 003: 3S                 -42.962071238 Ry
:3PP003: 3P*                -35.844167886 Ry
:3P 003: 3P                 -34.015291523 Ry
:3DD003: 3D*                -21.418639655 Ry
:3D 003: 3D                 -21.057912377 Ry
:4S 003: 4S                  -5.166086955 Ry
:CINT001 Core Integral Atom   1   11.999269
:CINT002 Core Integral Atom   2   11.999269
:CINT003 Core Integral Atom   3   29.997495

       DENSITY AT NUCLEUS
        JATOM        VALENCE       SEMI-CORE          CORE           TOTAL
:RTO001:   1        6.432219        0.000000    15302.961613    15309.393831
:RTO002:   2        6.432191        0.000000    15302.962925    15309.395116
:RTO003:   3       23.212186        0.000000   155315.542532   155338.754718
     
       CHARGES OF NEW CHARGE DENSITY
:NTO   : INTERSTITIAL CHARGE =     4.438950
:NPC   : PW Pseudocharge     =    10.681531
:NTO001: CHARGE SPHERE  1    =    25.187715
:NTO002: CHARGE SPHERE  2    =    25.196795
:NTO003: CHARGE SPHERE  3    =    43.585002

:NEC01: NUCLEAR AND ELECTRONIC CHARGE    142.00000   141.99346
     
       CHARGES OF OLD CHARGE DENSITY
:OTO   : INTERSTITIAL CHARGE =     4.448444
:OPC   : PW Pseudocharge     =    10.692132
:OTO001: CHARGE SPHERE  1    =    25.195943
:OTO002: CHARGE SPHERE  2    =    25.195886
:OTO003: CHARGE SPHERE  3    =    43.579863

:NEC02: NUCLEAR AND ELECTRONIC CHARGE    142.00000   142.00000
     
       CONVERGENCE TEST
:DTO001: DIFFERENCE IN SPHERE  1 =  0.0093777
:DTO002: DIFFERENCE IN SPHERE  2 =  0.0017100
:DTO003: DIFFERENCE IN SPHERE  3 =  0.0040619

:DIS  :  CHARGE DISTANCE       ( 0.0093777 for atom    1 spin 1)      0.0048029
 PW Mixed is           49
 
******************************************************
* MULTISECANT MIXING VER9 RELEASE 10.4.0              *
* Standard Mode with controls                        *
* Fixed density scale                                *
* Regularization       1.000E-04                     *
* Trust Upper Limit    5.000E+00                     *
* Max Number of Memory Steps    8                    *
******************************************************
 
:PWTMP   1.1765E+02  4.5917E+02  3.5807E+02
:PLANE:  PW TOTAL      1.6607 DISTAN   1.59E-03  9.59E-02 %
:CHARG:  CLM/ATOM    299.8732 DISTAN   4.24E-03  1.41E-03 %
 
Step History
        DMIX         DMIXT        Red     Pred      Trust     Lambda    MagRel    MagAbs     Beta
  4   5.2261E-02   5.2261E-02  8.73E-01  8.97E-01  2.53E-01  1.50E+00  6.83E-02  9.04E-02  8.86E-01
  5   1.3065E-01   9.0120E-02  7.93E-01  6.32E-01  3.77E-01  1.32E+00  1.18E-01  1.37E-01  1.00E+00
  6   9.4139E-02   9.4139E-02  4.61E-01  4.07E-01  4.75E-01  1.99E+00  2.90E-01  2.66E-01  1.00E+00
  7   8.0216E-02   8.0216E-02  7.05E-01  7.19E-01  6.33E-01  7.73E-01  1.33E-01  5.64E-02  9.84E-01
  8   1.9766E-01   1.9766E-01  5.00E+00  9.26E-01  1.27E+00  1.16E+00  4.19E-01  1.25E-01  1.00E+00
  9   1.2080E-01   1.2080E-01  2.14E-01  2.15E-01  1.14E+00  1.29E+00  1.26E-02  3.28E-02  8.00E-01
 10   2.8000E-01   2.8000E-01  1.55E-01  1.28E-01  1.03E+00  1.93E+00  2.16E-01  1.20E-01  1.00E+00
 11   2.1308E-01   2.1308E-01  7.90E-01  4.52E-01  1.72E+00  2.80E+00  1.69E-01  1.46E-02  1.00E+00
 12   3.5000E-01   3.5000E-01 -1.00E+00  1.18E-01  2.18E+00  1.00E+00  3.11E-01  2.12E-02  1.00E+00
:JACOBIANS    9.702E-01   1.574E+00
  
:NORMS:  1/Froebius, Min, Max, Used   0.5165E+00  0.3756E+00  0.9905E+00  0.7082E+00
:INFO :  Number of Memory Steps    8 Skipping    3
:INFO :  SLambda=    2.6578302787  Max    2.6578302787
:PREDicted Charge, CTotal, PW Trust    5.232E-03   6.852E-03   1.424E-02
:PREDicted DMix, Beta, BLim   1.2691E-01  9.8574E-01  3.0149E+00

Eigenvalues, unscaled except for SY+YY
   #     SY Real        SY Imag          SS             YY         SY+YY Real      SY+YY Imag
   1   1.776166E+00   0.000000E+00   1.766513E+00   3.521994E+00   6.772238E+00   0.000000E+00
   2   4.244508E-01   0.000000E+00   2.246511E-01   2.132010E+00   3.616685E+00   0.000000E+00
   3   2.826552E-01   0.000000E+00   1.398994E-01   1.378126E+00   2.658299E+00   0.000000E+00
   4   5.978762E-02   0.000000E+00   2.248129E-03   6.391554E-01   1.087904E+00   0.000000E+00
   5   1.794678E-02   0.000000E+00   4.352176E-04   3.152849E-01   6.585071E-01   0.000000E+00
   6   1.058625E-03   0.000000E+00   1.489047E-04   1.094751E-02   1.333920E-02   0.000000E+00
   7   5.098772E-05   0.000000E+00   6.556287E-05   2.385954E-03   2.543442E-04   0.000000E+00
   8   4.578586E-04   0.000000E+00   2.487410E-05   9.668109E-05   3.659191E-03   0.000000E+00
 
:INFO :  Singular value  6.813E+00 Weight  1.000E+00 Projection -1.545E-03
:INFO :  Singular value  3.630E+00 Weight  1.000E+00 Projection  5.750E-03
:INFO :  Singular value  2.653E+00 Weight  1.000E+00 Projection -6.921E-05
:INFO :  Singular value  1.084E+00 Weight  1.000E+00 Projection -2.115E-03
:INFO :  Singular value  6.561E-01 Weight  1.000E+00 Projection  3.368E-03
:INFO :  Singular value  1.334E-02 Weight  9.993E-01 Projection -8.234E-03
:INFO :  Singular value  3.660E-03 Weight  9.908E-01 Projection  8.693E-02
:INFO :  Singular value  2.542E-04 Weight  3.425E-01 Projection -3.542E-02
:RANK :  ACTIVE   7.33/8  =  91.66 % ; YY RANK   7.05/8  =  88.10 %
 
:DLIM :  Beta Active  9.893E-01
:BLIM :  VZERO Control Off
:TRUST:  Step 2.91E+00  Charge 6.64E-02 (e) CTO  1.15E-01 (e) PW  1.92E-01 (e)
:DIRM :  MEMORY  8/8  SCALE   1.000 RED  0.19 PRED  0.12 NEXT  0.25 BETA  0.99
:TRAVE:  Charge 5.23E-03 (e) CTO  8.42E-03 (e) PW  1.46E-02 (e)
:DIRP :  |MSR1|= 7.821E-04 |PRATT|= 1.592E-03 ANGLE=  20.0 DEGREES
:DIRQ :  |MSR1|= 1.420E-03 |PRATT|= 1.273E-02 ANGLE=  56.3 DEGREES
:DIRT :  |MSR1|= 1.622E-03 |PRATT|= 1.283E-02 ANGLE=  57.4 DEGREES
:MIX  :   MSE1   REGULARIZATION:  3.52E-04 GREED: 0.20329  Newton 1.00  0.1264                
     
       CHARGES OF MIXED CHARGE DENSITY
:CTO   : INTERSTITIAL CHARGE =     4.447066
:CPC   : PW Pseudocharge     =    10.695577
:CTO001: CHARGE SPHERE  1    =    25.195803
:CTO002: CHARGE SPHERE  2    =    25.195753
:CTO003: CHARGE SPHERE  3    =    43.580689

:NEC03: NUCLEAR AND ELECTRONIC CHARGE    142.00000   142.00000

PW CHANGE     H    K    L      Current       Change    Residue
:PTO001:      0    0    0  4.22895755E-02  5.774E-06  6.059E-06
:PTO002:     -1   -1   -1 -2.10534837E-06  5.164E-07 -5.909E-06
:PTO003:      0    0   -2 -1.32123642E-02 -1.862E-05 -4.935E-05
:PTO004:      0   -2   -2 -3.44637471E-04  4.094E-05  5.333E-05
:PTO005:     -1   -1   -3  2.75454171E-07 -6.802E-08 -1.117E-07
:PTO006:     -2   -2   -2  4.33559069E-03 -9.190E-07  6.208E-06
:PTO007:      0    0   -4 -1.17405961E-02 -9.587E-06 -3.285E-05
:PTO008:     -1   -3   -3 -1.61300110E-06  3.737E-07  1.401E-05
:PTO009:      0   -2   -4  1.18586714E-02  2.034E-05  6.409E-05
:PTO010:     -2   -2   -4 -2.00969132E-02 -4.996E-05 -1.075E-04
:PTO011:     -3   -3   -3 -1.08915962E-06  3.042E-07  3.936E-06
:PTO012:     -1   -1   -5  1.80233671E-06 -4.924E-07 -3.332E-06

:ENE  : ********** TOTAL ENERGY IN Ry =       -24232.07312684

