
:LABEL1: Calculations in /home/cmueller/wien/FZU/src/quartz/3000k
:LABEL2: on cv036 at Wed Jun 12 10:47:35 PM CEST 2024
:LABEL3: using WIEN2k_19.1 (Release 25/6/2019) in /home/cmueller/WIENROOT
:LABEL4: using the command: run_lapw
 Flat Integration
 New Mode for Coulomb Integral
 Consistent 3/8+Simpson combinations
 Extension of core to zero
 LDM version in phi
 Fifth-order quadrature in outwin


            ---------
:ITE001:  1. ITERATION
            ---------

:NATO :    2 INDEPENDENT AND    9 TOTAL ATOMS IN UNITCELL
       SUBSTANCE: SiO2 for tests                                              

       LATTICE                      = H   
:POT  : POTENTIAL OPTION EX_PBE EC_PBE VX_PBE VC_PBE
:LAT  : LATTICE CONSTANTS=  9.26193  9.26193 10.21737
:VOL  : UNIT CELL VOLUME =     759.05354
       MODE OF CALCULATION IS       = RELA
       NON-SPINPOLARIZED CALCULATION
:IFFT  : FFT-parameters:   72   72   80 Factor: 2.00


   CONVERGENCE PARAMETER FOR PSEUDOCHARGE: NCON=  9
   MAXIMAL VALUE OF RMT(JATOM)*ABSK(NKK) : RK  =19.43469


:VKCOUL :  VK-COUL convergence: 0.439E-05
       ATOMNUMBER=  1 Si         VCOUL-ZERO = -0.14366E+01
:EFG001:                        EFG         =     0.02023   *10**21  V / m**2
                               V20  TOT/SRF=    -0.01366    -0.01576
                               V22  TOT/SRF=     0.00026     0.00378
                               V22M TOT/SRF=    -0.01234    -0.02031
                               V21  TOT/SRF=     0.00000     0.00000
                               V21M TOT/SRF=     0.00000     0.00000

              0.00815   -0.01234    0.00000        0.02023    0.00000    0.00000
             -0.01234    0.00762    0.00000        0.00000   -0.00446    0.00000
              0.00000    0.00000   -0.01577        0.00000    0.00000   -0.01577

         MAIN DIRECTIONS OF THE EFG   1.0000  0.9788  0.0000
                                     -0.9788  1.0000  0.0000
                                      0.0000  0.0000  1.0000
:ANG001:  ANGLE WITH OLD X-AXIS =        44.4

:ETA001:                         ASYMM. ETA =     0.55936


       ATOMNUMBER=  2 O          VCOUL-ZERO = -0.80426E-01
:EFG002:                        EFG         =     2.34022   *10**21  V / m**2
                               V20  TOT/SRF=     0.01775     0.02253
                               V22  TOT/SRF=     0.46621     0.58167
                               V22M TOT/SRF=    -1.03110    -1.28760
                               V21  TOT/SRF=    -1.27074    -1.58634
                               V21M TOT/SRF=     1.11976     1.39844

              0.45596   -1.03110   -1.27074        2.34022    0.00000    0.00000
             -1.03110   -0.47646    1.11976        0.00000   -0.96512    0.00000
             -1.27074    1.11976    0.02049        0.00000    0.00000   -1.37510

         MAIN DIRECTIONS OF THE EFG   1.0000  1.0000  0.0171
                                     -0.7225  0.5266  1.0000
                                     -0.8966  0.6910 -0.7868
:ANG002:  ANGLE WITH OLD X-AXIS =        45.0

:ETA002:                         ASYMM. ETA =     0.17519


     HELLMANN-FEYNMAN-FORCE IN mRy/a.u. = |F|  Fx       Fy             Fz
:FHF001:   1.ATOM      0.660338428314      0.000000000000      0.000000000000     -0.660338428314

     HELLMANN-FEYNMAN-FORCE IN mRy/a.u. = |F|  Fx       Fy             Fz
:FHF002:   2.ATOM   1081.743219788848   -835.469666171216   -428.244727353585   -537.368852801085

:FIT001: LUSE= 13 SIGMA OF V-XC FIT FOR ATOM  1  0.7083896E-02
:FIT001: LUSE= 13 SIGMA OF V-XC FIT FOR ATOM  1  0.7083896E-02
:FIT002: LUSE= 13 SIGMA OF V-XC FIT FOR ATOM  2  0.1340515E-02
:FIT002: LUSE= 13 SIGMA OF V-XC FIT FOR ATOM  2  0.1340515E-02
:DEN  : DENSITY INTEGRAL  =         -1213.65209575   (Ry)
       ELS_POTENTIAL_AT Z=0 and Z=0.5:   0.04924  -0.09870
       ELS_POTENTIAL_AT Y=0 and Y=0.5:   0.00000   0.00000
:VZERO:v0,v0c,v0x  -0.68174   0.04924  -0.73098 v5,v5c,v5x  -0.78851  -0.09870  -0.68981
:VZERY:v0,v0c,v0x  -0.70684   0.00000  -0.70684 v5,v5c,v5x  -0.70684   0.00000  -0.70684
:VZERX:v0,v0c,v0x  -0.19278   0.24115  -0.43394 v5,v5c,v5x  -2.60401  -1.66125  -0.94276
:LMAX-WF:   10   Non-Spherical LMAX:   4

          ATOMIC SPHERE DEPENDENT PARAMETERS FOR ATOM  Si        
:e__0001: OVERALL ENERGY PARAMETER IS    0.3000
          OVERALL BASIS SET ON ATOM IS LAPW
:E0_0001: E( 0)=    0.3000
             APW+lo
:E1_0001: E( 1)=    0.3000
             APW+lo

          ATOMIC SPHERE DEPENDENT PARAMETERS FOR ATOM  O         
:e__0002: OVERALL ENERGY PARAMETER IS    0.3000
          OVERALL BASIS SET ON ATOM IS LAPW
:E0_0002: E( 0)=    0.7000
             APW+lo
:E0_0002: E( 0)=   -1.3125   E(BOTTOM)=   -2.596   E(TOP)=   -0.029  1  2   227
             LOCAL ORBITAL
:E1_0002: E( 1)=    0.3000
             APW+lo

       K=   0.00000   0.00000   0.00000            1
:RKM  : MATRIX SIZE  1625LOs:  42  RKM= 6.97  WEIGHT= 1.00  PGR:    
       EIGENVALUES ARE:
:EIG00001:      -1.5337335   -1.4411529   -1.4411529   -1.4032324   -1.4020544
:EIG00006:      -1.4020544   -0.6733388   -0.6733388   -0.4965059   -0.4916903
:EIG00011:      -0.4798361   -0.4798361   -0.3064939   -0.3064939   -0.2950819
:EIG00016:      -0.2783848   -0.2312958   -0.2312958   -0.2287494   -0.1966308
:EIG00021:      -0.1966308   -0.1787817   -0.1550107   -0.1550107    0.4492100
:EIG00026:       0.7232531    0.7232531    0.7386762    0.7386762    0.8434397
:EIG00031:       0.8529819    0.9179382    0.9299848    0.9299849    0.9516003
:EIG00036:       0.9516004    1.0301086    1.1219674    1.1340356    1.1340356
:EIG00041:       1.1492873    1.1492873    1.2637802    1.2637802    1.3567079
:EIG00046:       1.4031372    1.4031372    1.5191633    1.5191633    1.6021189
 
:EIG00051:       1.6103445    1.6103445    1.6767738    1.8027086    1.8027086
:EIG00056:       1.8145228    1.8885771    1.9014355    1.9014355    1.9311295
:EIG00061:       1.9986548    1.9986548
       ********************************************************

:KPT   :      NUMBER OF K-POINTS:   284
       Insulator, EF-inconsistency corrected
:GAP (global)   :  0.589686 Ry =     8.023 eV (accurate value if proper k-mesh)
         Bandranges (emin - emax) and occupancy:
:BAN00014:  14   -0.319292   -0.291053  2.00000000
:BAN00015:  15   -0.301400   -0.278987  2.00000000
:BAN00016:  16   -0.281743   -0.254051  2.00000000
:BAN00017:  17   -0.264937   -0.231296  2.00000000
:BAN00018:  18   -0.253299   -0.226258  2.00000000
:BAN00019:  19   -0.246308   -0.195099  2.00000000
:BAN00020:  20   -0.227412   -0.194576  2.00000000
:BAN00021:  21   -0.210065   -0.187593  2.00000000
:BAN00022:  22   -0.190234   -0.152528  2.00000000
:BAN00023:  23   -0.175770   -0.147828  2.00000000
:BAN00024:  24   -0.171155   -0.140476  2.00000000
:BAN00025:  25    0.449210    0.655435  0.00000000
:BAN00026:  26    0.573090    0.727538  0.00000000
:BAN00027:  27    0.687615    0.744508  0.00000000
:BAN00028:  28    0.729612    0.794428  0.00000000
:BAN00029:  29    0.738676    0.800058  0.00000000
        Energy to separate low and high energystates:   -0.78952


:NOE  : NUMBER OF ELECTRONS          =   48.000

:FER  : F E R M I - ENERGY(TETRAH.M.)=  -0.1404761404
:GMA  : POTENTIAL AND CHARGE CUT-OFF  12.00 Ry**.5

:POS001: ATOM   -1 X,Y,Z = 0.46913 0.46913 0.50000  MULT= 3  ZZ= 14.000  Si        

       LMMAX 25
       LM=   0 0  1 0  2 0  2 2 -2 2  3 0  3 2 -3 2  4 0  4 2 -4 2  4 4 -4 4  5 0  5 2 -5 2  5 4
        -5 4  6 0  6 2 -6 2  6 4 -6 4  6 6 -6 6

:CHA001: TOTAL VALENCE CHARGE INSIDE SPHERE   1 =   0.4683    (RMT=  1.4000 )
:PCS001: PARTIAL CHARGES SPHERE =  1 S,P,D,F,PX,PY,PZ,D-Z2,D-X2Y2,D-XY,D-XZ,D-YZ 
:QTL001: 0.1631 0.2089 0.0866 0.0081 0.0703 0.0707 0.0679 0.0096 0.0134 0.0193 0.0225 0.0219
        Q-s-low E-s-low   Q-p-low E-p-low   Q-d-low E-d-low   Q-f-low E-f-low
:EPL001:  0.0426 -1.4842    0.0400 -1.4191    0.0132 -1.4190    0.0017 -1.4569
        Q-s-hi  E-s-hi    Q-p-hi  E-p-hi    Q-d-hi  E-d-hi    Q-f-hi  E-f-hi 
:EPH001:  0.1205 -0.6142    0.1690 -0.4687    0.0734 -0.3427    0.0064 -0.3281

                      QXX         QXY         QYY         QZZ       UP TO R
:VZZ001:            -0.21894     0.19224    -0.34952     0.56847       1.400

:POS002: ATOM   -2 X,Y,Z = 0.14451 0.41337 0.61807  MULT= 6  ZZ=  8.000  O         

       LMMAX 49

:CHA002: TOTAL VALENCE CHARGE INSIDE SPHERE   2 =   5.8956    (RMT=  1.6200 )
:PCS002: PARTIAL CHARGES SPHERE =  2 S,P,D,F,PX,PY,PZ,D-Z2,D-X2Y2,D-XY,D-XZ,D-YZ 
:QTL002: 1.6326 4.2473 0.0117 0.0037 1.4066 1.4260 1.4146 0.0019 0.0026 0.0021 0.0025 0.0026
        Q-s-low E-s-low   Q-p-low E-p-low   Q-d-low E-d-low   Q-f-low E-f-low
:EPL002:  1.5782 -1.4366    0.0179 -1.4457    0.0035 -1.4453    0.0003 -1.4392
        Q-s-hi  E-s-hi    Q-p-hi  E-p-hi    Q-d-hi  E-d-hi    Q-f-hi  E-f-hi 
:EPH002:  0.0543 -0.3922    4.2294 -0.3245    0.0082 -0.4097    0.0034 -0.3893

                      QXX         QXY         QYY         QZZ       UP TO R
:VZZ002:             1.25737    -2.79218    -1.38035     0.12298       1.620

:CHA  : TOTAL VALENCE CHARGE INSIDE UNIT CELL =      48.000000

:SUM  : SUM OF EIGENVALUES =         -29.385398412


        1.ATOM      Si                    4 CORE STATES
       CORE-FORCE in mRy/a.u. = |F|      Fx             Fy             Fz
:FCO001:   1.ATOM      1.783675543869      0.000000000000      0.000000000000     -1.783675543869

:1S 001: 1S                -130.525094101 Ry
:2S 001: 2S                  -9.542215991 Ry
:2PP001: 2P*                 -6.344054225 Ry
:2P 001: 2P                  -6.296687983 Ry

        2.ATOM      O                     1 CORE STATES
       CORE-FORCE in mRy/a.u. = |F|      Fx             Fy             Fz
:FCO002:   2.ATOM    276.523919606015    213.560191266678    109.476952742167    137.376561460472

:1S 002: 1S                 -37.323263231 Ry
:CINT001 Core Integral Atom   1    9.921255
:CINT002 Core Integral Atom   2    2.003890

       DENSITY AT NUCLEUS
        JATOM        VALENCE       SEMI-CORE          CORE           TOTAL
:RTO001:   1        4.830667     1885.991394        0.000000     1890.822061
:RTO002:   2       15.670298      303.971913        0.000000      319.642211
     
       CHARGES OF NEW CHARGE DENSITY
:NTO   : INTERSTITIAL CHARGE =    11.434839
:NPC   : PW Pseudocharge     =    27.022601
:NTO001: CHARGE SPHERE  1    =    10.389533
:NTO002: CHARGE SPHERE  2    =     7.899524

:NEC01: NUCLEAR AND ELECTRONIC CHARGE     90.00000    90.00058
     
       CHARGES OF OLD CHARGE DENSITY
:OTO   : INTERSTITIAL CHARGE =    15.689680
:OPC   : PW Pseudocharge     =    23.640838
:OTO001: CHARGE SPHERE  1    =    10.610239
:OTO002: CHARGE SPHERE  2    =     7.080276

:NEC02: NUCLEAR AND ELECTRONIC CHARGE     90.00000    90.00205
     
       CONVERGENCE TEST
:DTO001: DIFFERENCE IN SPHERE  1 =  0.3177864
:DTO002: DIFFERENCE IN SPHERE  2 =  0.9570001

:DIS  :  CHARGE DISTANCE       ( 0.9570001 for atom    2 spin 1)      0.7439289
 PW Mixed is         2149
 
******************************************************
* MULTISECANT MIXING VER9 RELEASE 10.4.0              *
* Standard Mode with controls                        *
* Fixed density scale                                *
* Regularization       1.000E-04                     *
* Trust Upper Limit    5.000E+00                     *
* Max Number of Memory Steps    8                    *
******************************************************
 
:PWTMP   6.1772E+02  5.7600E+02  7.5905E+02
:PLANE:  PW TOTAL      7.1397 DISTAN   2.36E+00  3.31E+01 %
:CHARG:  CLM/ATOM     80.8997 DISTAN   1.23E+00  1.52E+00 %
 
Step History
        DMIX         DMIXT        Red     Pred      Trust     Lambda    MagRel    MagAbs     Beta
  1   3.5000E-02   3.5000E-02 -1.00E+00  1.00E+00 -1.00E+01  1.00E+00  3.50E-02  3.50E-02  1.00E+00
:INFO :  Note, Pratt in use
:TRUST:  Step 5.25E-02  Charge 7.50E-02 (e) CTO  2.69E-01 (e) PW  3.77E-01 (e)
:DIRM :  MEMORY  0/ 8 SCALE   1.000
Performing Pseudo Compensation
Final Pseudo Compensation Rescaling     9.99810E-01
:MIX  :   PRATT  REGULARIZATION:  1.00E-04 GREED: 0.03500                  
     
       CHARGES OF MIXED CHARGE DENSITY
:CTO   : INTERSTITIAL CHARGE =    15.538759
:CPC   : PW Pseudocharge     =    25.867923
:CTO001: CHARGE SPHERE  1    =    10.602514
:CTO002: CHARGE SPHERE  2    =     7.108950

:NEC03: NUCLEAR AND ELECTRONIC CHARGE     90.00000    90.00000

PW CHANGE     H    K    L             Current                    Change               Residue
:PTO001:      0    0    0  5.45504104E-02 0.00000000E+00  2.742E-03  0.000E+00 -1.146E-03  0.000E+00
:PTO002:      0    0   -1 -7.90179931E-10-8.32781347E-20  2.681E-11 -8.328E-20  7.660E-10  0.000E+00
:PTO003:     -1    0    0 -3.92160716E-02 0.00000000E+00 -4.214E-04  0.000E+00  1.930E-03  0.000E+00
:PTO004:     -1    0   -1  4.40690004E-02-7.63297456E-02  1.453E-03 -2.517E-03  1.419E-03 -2.457E-03
:PTO005:     -1    0    1  2.65815647E-02 4.60406196E-02  3.527E-04  6.108E-04 -8.894E-06 -1.540E-05
:PTO006:      0    0   -2 -3.63893105E-10 1.49597964E-19 -3.137E-11  1.496E-19  2.510E-10  0.000E+00
:PTO007:     -2    1    0 -1.55791991E-02-2.17791997E-02 -1.012E-03 -4.923E-03 -1.721E-03 -8.290E-03
:PTO008:     -1   -1    0 -1.55791991E-02 2.17791997E-02 -1.012E-03  4.923E-03 -1.721E-03  8.290E-03
:PTO009:     -1    0   -2  3.48013410E-02 6.02776932E-02  8.664E-03  1.501E-02  1.435E-02  2.485E-02
:PTO010:     -1    0    2 -2.92100778E-04 5.05932431E-04  3.316E-03 -5.743E-03  4.915E-03 -8.514E-03
:PTO011:     -2    1   -1 -4.28054676E-02-2.22255195E-02 -1.011E-02 -9.009E-03 -1.736E-02 -1.388E-02
:PTO012:     -1   -1   -1  4.06505977E-02 2.59578633E-02  1.286E-02  4.249E-03  2.070E-02  8.090E-03

:ENE  : ********** TOTAL ENERGY IN Ry =        -2644.94509463

       TOTAL FORCE IN mRy/a.u. = |F|     Fx             Fy             Fz     with/without FOR in case.in2
:FOR001:   1.ATOM          2.444          0.000          0.000         -2.444 partial forces
:FOR002:   2.ATOM        805.219       -621.909       -318.768       -399.992 partial forces
       TOTAL FORCE WITH RESPECT TO GLOBAL CARTESIAN COORDINATES:
:FCA001:   1.ATOM                        -2.117         -1.222          0.000 partial forces
:FCA002:   2.ATOM                      -621.909       -318.768       -399.992 partial forces
       TOTAL FORCE WITH RESPECT TO THE GLOBAL COORDINATE SYSTEM:
:FGL001:   1.ATOM                -2.444013972    -2.444013972     0.000000000 partial forces
:FGL002:   2.ATOM              -718.119205495  -677.827377359  -399.992291341 partial forces
 Flat Integration
 New Mode for Coulomb Integral
 Consistent 3/8+Simpson combinations
 Extension of core to zero
 LDM version in phi
 Fifth-order quadrature in outwin


            ---------
:ITE002:  2. ITERATION
            ---------

:NATO :    2 INDEPENDENT AND    9 TOTAL ATOMS IN UNITCELL
       SUBSTANCE: SiO2 for tests                                              

       LATTICE                      = H   
:POT  : POTENTIAL OPTION EX_PBE EC_PBE VX_PBE VC_PBE
:LAT  : LATTICE CONSTANTS=  9.26193  9.26193 10.21737
:VOL  : UNIT CELL VOLUME =     759.05354
       MODE OF CALCULATION IS       = RELA
       NON-SPINPOLARIZED CALCULATION
:IFFT  : FFT-parameters:   72   72   80 Factor: 2.00


   CONVERGENCE PARAMETER FOR PSEUDOCHARGE: NCON=  9
   MAXIMAL VALUE OF RMT(JATOM)*ABSK(NKK) : RK  =19.43469


:VKCOUL :  VK-COUL convergence: 0.349E-05
       ATOMNUMBER=  1 Si         VCOUL-ZERO = -0.14345E+01
:EFG001:                        EFG         =    -0.00754   *10**21  V / m**2
                               V20  TOT/SRF=     0.00330    -0.01556
                               V22  TOT/SRF=     0.00175     0.00286
                               V22M TOT/SRF=    -0.00536    -0.01952
                               V21  TOT/SRF=     0.00000     0.00000
                               V21M TOT/SRF=     0.00000     0.00000

             -0.00016   -0.00536    0.00000        0.00373    0.00000    0.00000
             -0.00536   -0.00365    0.00000        0.00000   -0.00754    0.00000
              0.00000    0.00000    0.00381        0.00000    0.00000    0.00381

         MAIN DIRECTIONS OF THE EFG   1.0000  0.7260  0.0000
                                     -0.7260  1.0000  0.0000
                                      0.0000  0.0000  1.0000
:ANG001:  ANGLE WITH OLD X-AXIS =        36.0

:ETA001:                         ASYMM. ETA =     0.01020


       ATOMNUMBER=  2 O          VCOUL-ZERO = -0.67618E-01
:EFG002:                        EFG         =     2.60460   *10**21  V / m**2
                               V20  TOT/SRF=     0.02198     0.02280
                               V22  TOT/SRF=     0.51977     0.58293
                               V22M TOT/SRF=    -1.14425    -1.28935
                               V21  TOT/SRF=    -1.41362    -1.58829
                               V21M TOT/SRF=     1.25051     1.39987

              0.50708   -1.14425   -1.41362        2.60460    0.00000    0.00000
             -1.14425   -0.53246    1.25051        0.00000   -1.06971    0.00000
             -1.41362    1.25051    0.02538        0.00000    0.00000   -1.53489

         MAIN DIRECTIONS OF THE EFG   1.0000  1.0000  0.0148
                                     -0.7230  0.5277  1.0000
                                     -0.8986  0.6883 -0.7881
:ANG002:  ANGLE WITH OLD X-AXIS =        45.0

:ETA002:                         ASYMM. ETA =     0.17860


     HELLMANN-FEYNMAN-FORCE IN mRy/a.u. = |F|  Fx       Fy             Fz
:FHF001:   1.ATOM      2.491734375829      0.000000000000      0.000000000000     -2.491734375829

     HELLMANN-FEYNMAN-FORCE IN mRy/a.u. = |F|  Fx       Fy             Fz
:FHF002:   2.ATOM   1066.196172993884   -822.867426484703   -424.120271155649   -528.947514723441

:FIT001: LUSE= 13 SIGMA OF V-XC FIT FOR ATOM  1  0.7524944E-02
:FIT001: LUSE= 13 SIGMA OF V-XC FIT FOR ATOM  1  0.7524944E-02
:FIT002: LUSE= 13 SIGMA OF V-XC FIT FOR ATOM  2  0.1302217E-02
:FIT002: LUSE= 13 SIGMA OF V-XC FIT FOR ATOM  2  0.1302217E-02
:DEN  : DENSITY INTEGRAL  =         -1215.13495262   (Ry)
       ELS_POTENTIAL_AT Z=0 and Z=0.5:   0.04459  -0.08848
       ELS_POTENTIAL_AT Y=0 and Y=0.5:   0.00000   0.00000
:VZERO:v0,v0c,v0x  -0.69405   0.04459  -0.73864 v5,v5c,v5x  -0.76526  -0.08848  -0.67678
:VZERY:v0,v0c,v0x  -0.70670   0.00000  -0.70670 v5,v5c,v5x  -0.70670   0.00000  -0.70670
:VZERX:v0,v0c,v0x  -0.13511   0.26833  -0.40343 v5,v5c,v5x  -2.54918  -1.63690  -0.91229
:LMAX-WF:   10   Non-Spherical LMAX:   4

          ATOMIC SPHERE DEPENDENT PARAMETERS FOR ATOM  Si        
:e__0001: OVERALL ENERGY PARAMETER IS    0.1000
          OVERALL BASIS SET ON ATOM IS LAPW
:E0_0001: E( 0)=    0.1000
             APW+lo
:E1_0001: E( 1)=    0.1000
             APW+lo

          ATOMIC SPHERE DEPENDENT PARAMETERS FOR ATOM  O         
:e__0002: OVERALL ENERGY PARAMETER IS    0.1000
          OVERALL BASIS SET ON ATOM IS LAPW
:E0_0002: E( 0)=    0.5000
             APW+lo
:E0_0002: E( 0)=   -1.2840   E(BOTTOM)=   -2.572   E(TOP)=    0.004  1  2   224
             LOCAL ORBITAL
:E1_0002: E( 1)=    0.1000
             APW+lo

       K=   0.00000   0.00000   0.00000            1
:RKM  : MATRIX SIZE  1625LOs:  42  RKM= 6.97  WEIGHT= 1.00  PGR:    
       EIGENVALUES ARE:
:EIG00001:      -1.5114704   -1.4171229   -1.4171229   -1.3783384   -1.3770495
:EIG00006:      -1.3770495   -0.6547207   -0.6547207   -0.4744233   -0.4701955
:EIG00011:      -0.4580378   -0.4580378   -0.2848569   -0.2848569   -0.2728038
:EIG00016:      -0.2559530   -0.2070152   -0.2070152   -0.2046271   -0.1720140
:EIG00021:      -0.1720140   -0.1537956   -0.1295848   -0.1295848    0.4601066
:EIG00026:       0.7315640    0.7315640    0.7482354    0.7482354    0.8561543
:EIG00031:       0.8606457    0.9281280    0.9426387    0.9426387    0.9651457
:EIG00036:       0.9651457    1.0422608    1.1326046    1.1433054    1.1433054
:EIG00041:       1.1576120    1.1576120    1.2728852    1.2728852    1.3655570
:EIG00046:       1.4127596    1.4127596    1.5274859    1.5274859    1.6083277
 
:EIG00051:       1.6182040    1.6182040    1.6851222
       ********************************************************

:KPT   :      NUMBER OF K-POINTS:   284
       Insulator, EF-inconsistency corrected
:GAP (global)   :  0.574505 Ry =     7.817 eV (accurate value if proper k-mesh)
         Bandranges (emin - emax) and occupancy:
:BAN00014:  14   -0.298214   -0.268721  2.00000000
:BAN00015:  15   -0.279475   -0.256367  2.00000000
:BAN00016:  16   -0.259187   -0.230492  2.00000000
:BAN00017:  17   -0.241862   -0.207015  2.00000000
:BAN00018:  18   -0.230096   -0.202286  2.00000000
:BAN00019:  19   -0.222948   -0.170483  2.00000000
:BAN00020:  20   -0.203531   -0.169789  2.00000000
:BAN00021:  21   -0.185785   -0.162941  2.00000000
:BAN00022:  22   -0.165374   -0.126801  2.00000000
:BAN00023:  23   -0.150692   -0.122057  2.00000000
:BAN00024:  24   -0.146092   -0.114399  2.00000000
:BAN00025:  25    0.460107    0.667263  0.00000000
:BAN00026:  26    0.585697    0.739213  0.00000000
:BAN00027:  27    0.699810    0.754601  0.00000000
:BAN00028:  28    0.737561    0.804536  0.00000000
:BAN00029:  29    0.748235    0.809949  0.00000000
        Energy to separate low and high energystates:   -0.77228


:NOE  : NUMBER OF ELECTRONS          =   48.000

:FER  : F E R M I - ENERGY(TETRAH.M.)=  -0.1143988105
:GMA  : POTENTIAL AND CHARGE CUT-OFF  12.00 Ry**.5

:POS001: ATOM   -1 X,Y,Z = 0.46913 0.46913 0.50000  MULT= 3  ZZ= 14.000  Si        

       LMMAX 25
       LM=   0 0  1 0  2 0  2 2 -2 2  3 0  3 2 -3 2  4 0  4 2 -4 2  4 4 -4 4  5 0  5 2 -5 2  5 4
        -5 4  6 0  6 2 -6 2  6 4 -6 4  6 6 -6 6

:CHA001: TOTAL VALENCE CHARGE INSIDE SPHERE   1 =   0.4783    (RMT=  1.4000 )
:PCS001: PARTIAL CHARGES SPHERE =  1 S,P,D,F,PX,PY,PZ,D-Z2,D-X2Y2,D-XY,D-XZ,D-YZ 
:QTL001: 0.1666 0.2138 0.0882 0.0081 0.0719 0.0724 0.0695 0.0098 0.0137 0.0197 0.0228 0.0222
        Q-s-low E-s-low   Q-p-low E-p-low   Q-d-low E-d-low   Q-f-low E-f-low
:EPL001:  0.0437 -1.4609    0.0408 -1.3944    0.0133 -1.3944    0.0017 -1.4330
        Q-s-hi  E-s-hi    Q-p-hi  E-p-hi    Q-d-hi  E-d-hi    Q-f-hi  E-f-hi 
:EPH001:  0.1228 -0.5944    0.1730 -0.4466    0.0750 -0.3178    0.0065 -0.3020

                      QXX         QXY         QYY         QZZ       UP TO R
:VZZ001:            -0.22119     0.19311    -0.36952     0.59072       1.400

:POS002: ATOM   -2 X,Y,Z = 0.14451 0.41337 0.61807  MULT= 6  ZZ=  8.000  O         

       LMMAX 49

:CHA002: TOTAL VALENCE CHARGE INSIDE SPHERE   2 =   5.8586    (RMT=  1.6200 )
:PCS002: PARTIAL CHARGES SPHERE =  2 S,P,D,F,PX,PY,PZ,D-Z2,D-X2Y2,D-XY,D-XZ,D-YZ 
:QTL002: 1.6286 4.2139 0.0120 0.0037 1.3956 1.4147 1.4035 0.0019 0.0027 0.0021 0.0026 0.0027
        Q-s-low E-s-low   Q-p-low E-p-low   Q-d-low E-d-low   Q-f-low E-f-low
:EPL002:  1.5723 -1.4124    0.0182 -1.4218    0.0036 -1.4213    0.0003 -1.4151
        Q-s-hi  E-s-hi    Q-p-hi  E-p-hi    Q-d-hi  E-d-hi    Q-f-hi  E-f-hi 
:EPH002:  0.0562 -0.3717    4.1957 -0.3013    0.0084 -0.3862    0.0034 -0.3665

                      QXX         QXY         QYY         QZZ       UP TO R
:VZZ002:             1.21184    -2.68193    -1.33455     0.12270       1.620

:CHA  : TOTAL VALENCE CHARGE INSIDE UNIT CELL =      48.000000

:SUM  : SUM OF EIGENVALUES =         -28.275853720


        1.ATOM      Si                    4 CORE STATES
       CORE-FORCE in mRy/a.u. = |F|      Fx             Fy             Fz
:FCO001:   1.ATOM      0.445014993738      0.000000000000      0.000000000000     -0.445014993738

:1S 001: 1S                -130.531921653 Ry
:2S 001: 2S                  -9.545141121 Ry
:2PP001: 2P*                 -6.347210932 Ry
:2P 001: 2P                  -6.299826844 Ry

        2.ATOM      O                     1 CORE STATES
       CORE-FORCE in mRy/a.u. = |F|      Fx             Fy             Fz
:FCO002:   2.ATOM    280.829385204408    216.662192277201    111.739395593109    139.416446319684

:1S 002: 1S                 -37.273204591 Ry
:CINT001 Core Integral Atom   1    9.921473
:CINT002 Core Integral Atom   2    2.003877

       DENSITY AT NUCLEUS
        JATOM        VALENCE       SEMI-CORE          CORE           TOTAL
:RTO001:   1        4.956855     1886.033454        0.000000     1890.990309
:RTO002:   2       15.571695      303.953633        0.000000      319.525328
     
       CHARGES OF NEW CHARGE DENSITY
:NTO   : INTERSTITIAL CHARGE =    11.626607
:NPC   : PW Pseudocharge     =    27.040837
:NTO001: CHARGE SPHERE  1    =    10.399738
:NTO002: CHARGE SPHERE  2    =     7.862461

:NEC01: NUCLEAR AND ELECTRONIC CHARGE     90.00000    90.00059
     
       CHARGES OF OLD CHARGE DENSITY
:OTO   : INTERSTITIAL CHARGE =    15.538759
:OPC   : PW Pseudocharge     =    25.867923
:OTO001: CHARGE SPHERE  1    =    10.602514
:OTO002: CHARGE SPHERE  2    =     7.108950

:NEC02: NUCLEAR AND ELECTRONIC CHARGE     90.00000    90.00000
     
       CONVERGENCE TEST
:DTO001: DIFFERENCE IN SPHERE  1 =  0.2897082
:DTO002: DIFFERENCE IN SPHERE  2 =  0.8830632

:DIS  :  CHARGE DISTANCE       ( 0.8830632 for atom    2 spin 1)      0.6852782
 PW Mixed is         2149
 
******************************************************
* MULTISECANT MIXING VER9 RELEASE 10.4.0              *
* Standard Mode with controls                        *
* Fixed density scale                                *
* Regularization       1.000E-04                     *
* Trust Upper Limit    5.000E+00                     *
* Max Number of Memory Steps    8                    *
******************************************************
 
:PWTMP   6.1772E+02  5.7600E+02  7.5905E+02
:PLANE:  PW TOTAL      8.1602 DISTAN   1.00E+00  1.23E+01 %
:CHARG:  CLM/ATOM     80.8981 DISTAN   1.13E+00  1.40E+00 %
 
Step History
        DMIX         DMIXT        Red     Pred      Trust     Lambda    MagRel    MagAbs     Beta
  1   3.5000E-02   3.5000E-02 -1.00E+00  1.00E+00 -1.00E+01  1.00E+00  3.50E-02  3.50E-02  1.00E+00
  2   3.5000E-02   3.5000E-02 -1.00E+00  1.00E+00 -1.00E+01  1.00E+00  3.50E-02  1.19E-01  1.00E+00
:JACOBIANS    4.889E-01   2.719E-03
  
:TRUST:  Step 5.98E-02  Charge 7.50E-02 (e) CTO  2.69E-01 (e) PW  3.77E-01 (e)
:DIRM :  MEMORY  1/ 8 SCALE   1.000
:MIX  :   PRATT  REGULARIZATION:  1.00E-04 GREED: 0.05982  Expand 1.71  0.0598                
     
       CHARGES OF MIXED CHARGE DENSITY
:CTO   : INTERSTITIAL CHARGE =    15.477882
:CPC   : PW Pseudocharge     =    26.779908
:CTO001: CHARGE SPHERE  1    =    10.599355
:CTO002: CHARGE SPHERE  2    =     7.120675

:NEC03: NUCLEAR AND ELECTRONIC CHARGE     90.00000    90.00000

PW CHANGE     H    K    L             Current                    Change               Residue
:PTO001:      0    0    0  5.56716859E-02 0.00000000E+00  1.121E-03  0.000E+00 -3.611E-03  0.000E+00
:PTO002:      0    0   -1 -7.79216128E-10 0.00000000E+00  1.096E-11  0.000E+00  7.393E-10  0.000E+00
:PTO003:     -1    0    0 -3.93883741E-02 0.00000000E+00 -1.723E-04  0.000E+00  2.128E-03  0.000E+00
:PTO004:     -1    0   -1  4.46632573E-02-7.73590290E-02  5.943E-04 -1.029E-03  1.022E-04 -1.771E-04
:PTO005:     -1    0    1  2.67257739E-02 4.62903972E-02  1.442E-04  2.498E-04 -2.578E-04 -4.465E-04
:PTO006:      0    0   -2 -3.76722141E-10 0.00000000E+00 -1.283E-11  0.000E+00  2.825E-10  0.000E+00
:PTO007:     -2    1    0 -1.59930606E-02-2.37924035E-02 -4.139E-04 -2.013E-03 -6.972E-04 -3.302E-03
:PTO008:     -1   -1    0 -1.59930606E-02 2.37924035E-02 -4.139E-04  2.013E-03 -6.972E-04  3.302E-03
:PTO009:     -1    0   -2  3.83443627E-02 6.64143875E-02  3.543E-03  6.137E-03  5.560E-03  9.630E-03
:PTO010:     -1    0    2  1.06379729E-03-1.84255104E-03  1.356E-03 -2.348E-03  1.561E-03 -2.703E-03
:PTO011:     -2    1   -1 -4.69386873E-02-2.59094574E-02 -4.133E-03 -3.684E-03 -7.112E-03 -4.742E-03
:PTO012:     -1   -1   -1  4.59075914E-02 2.76953679E-02  5.257E-03  1.738E-03  7.663E-03  3.788E-03

:ENE  : ********** TOTAL ENERGY IN Ry =        -2644.83282580

       TOTAL FORCE IN mRy/a.u. = |F|     Fx             Fy             Fz     with/without FOR in case.in2
:FOR001:   1.ATOM          2.937          0.000          0.000         -2.937 partial forces
:FOR002:   2.ATOM        785.367       -606.205       -312.381       -389.531 partial forces
       TOTAL FORCE WITH RESPECT TO GLOBAL CARTESIAN COORDINATES:
:FCA001:   1.ATOM                        -2.543         -1.468          0.000 partial forces
:FCA002:   2.ATOM                      -606.205       -312.381       -389.531 partial forces
       TOTAL FORCE WITH RESPECT TO THE GLOBAL COORDINATE SYSTEM:
:FGL001:   1.ATOM                -2.936749370    -2.936749370     0.000000000 partial forces
:FGL002:   2.ATOM              -699.985510308  -662.373630716  -389.531068404 partial forces

:LABEL1: Calculations in /home/cmueller/wien/FZU/src/quartz/3000k
:LABEL2: on cv036 at Sat Jun 22 11:29:47 AM CEST 2024
:LABEL3: using WIEN2k_19.1 (Release 25/6/2019) in /home/cmueller/WIENROOT
:LABEL4: using the command: run_lapw
 Flat Integration
 New Mode for Coulomb Integral
 Consistent 3/8+Simpson combinations
 Extension of core to zero
 LDM version in phi
 Fifth-order quadrature in outwin


            ---------
:ITE001:  1. ITERATION
            ---------

:NATO :    2 INDEPENDENT AND    9 TOTAL ATOMS IN UNITCELL
       SUBSTANCE: SiO2 for tests                                              

       LATTICE                      = H   
:POT  : POTENTIAL OPTION EX_PBE EC_PBE VX_PBE VC_PBE
:LAT  : LATTICE CONSTANTS=  9.26193  9.26193 10.21737
:VOL  : UNIT CELL VOLUME =     759.05354
       MODE OF CALCULATION IS       = RELA
       NON-SPINPOLARIZED CALCULATION
:IFFT  : FFT-parameters:   72   72   80 Factor: 2.00


   CONVERGENCE PARAMETER FOR PSEUDOCHARGE: NCON=  9
   MAXIMAL VALUE OF RMT(JATOM)*ABSK(NKK) : RK  =19.43469


:VKCOUL :  VK-COUL convergence: 0.439E-05
       ATOMNUMBER=  1 Si         VCOUL-ZERO = -0.14366E+01
:EFG001:                        EFG         =     0.02023   *10**21  V / m**2
                               V20  TOT/SRF=    -0.01366    -0.01576
                               V22  TOT/SRF=     0.00026     0.00378
                               V22M TOT/SRF=    -0.01234    -0.02031
                               V21  TOT/SRF=     0.00000     0.00000
                               V21M TOT/SRF=     0.00000     0.00000

              0.00815   -0.01234    0.00000        0.02023    0.00000    0.00000
             -0.01234    0.00762    0.00000        0.00000   -0.00446    0.00000
              0.00000    0.00000   -0.01577        0.00000    0.00000   -0.01577

         MAIN DIRECTIONS OF THE EFG   1.0000  0.9788  0.0000
                                     -0.9788  1.0000  0.0000
                                      0.0000  0.0000  1.0000
:ANG001:  ANGLE WITH OLD X-AXIS =        44.4

:ETA001:                         ASYMM. ETA =     0.55936


       ATOMNUMBER=  2 O          VCOUL-ZERO = -0.80426E-01
:EFG002:                        EFG         =     2.34022   *10**21  V / m**2
                               V20  TOT/SRF=     0.01775     0.02253
                               V22  TOT/SRF=     0.46621     0.58167
                               V22M TOT/SRF=    -1.03110    -1.28760
                               V21  TOT/SRF=    -1.27074    -1.58634
                               V21M TOT/SRF=     1.11976     1.39844

              0.45596   -1.03110   -1.27074        2.34022    0.00000    0.00000
             -1.03110   -0.47646    1.11976        0.00000   -0.96512    0.00000
             -1.27074    1.11976    0.02049        0.00000    0.00000   -1.37510

         MAIN DIRECTIONS OF THE EFG   1.0000  1.0000  0.0171
                                     -0.7225  0.5266  1.0000
                                     -0.8966  0.6910 -0.7868
:ANG002:  ANGLE WITH OLD X-AXIS =        45.0

:ETA002:                         ASYMM. ETA =     0.17519


     HELLMANN-FEYNMAN-FORCE IN mRy/a.u. = |F|  Fx       Fy             Fz
:FHF001:   1.ATOM      0.660338428314      0.000000000000      0.000000000000     -0.660338428314

     HELLMANN-FEYNMAN-FORCE IN mRy/a.u. = |F|  Fx       Fy             Fz
:FHF002:   2.ATOM   1081.743219788848   -835.469666171216   -428.244727353585   -537.368852801085

:FIT001: LUSE= 13 SIGMA OF V-XC FIT FOR ATOM  1  0.7083896E-02
:FIT001: LUSE= 13 SIGMA OF V-XC FIT FOR ATOM  1  0.7083896E-02
:FIT002: LUSE= 13 SIGMA OF V-XC FIT FOR ATOM  2  0.1340515E-02
:FIT002: LUSE= 13 SIGMA OF V-XC FIT FOR ATOM  2  0.1340515E-02
:DEN  : DENSITY INTEGRAL  =         -1213.65209575   (Ry)
       ELS_POTENTIAL_AT Z=0 and Z=0.5:   0.04924  -0.09870
       ELS_POTENTIAL_AT Y=0 and Y=0.5:   0.00000   0.00000
:VZERO:v0,v0c,v0x  -0.68174   0.04924  -0.73098 v5,v5c,v5x  -0.78851  -0.09870  -0.68981
:VZERY:v0,v0c,v0x  -0.70684   0.00000  -0.70684 v5,v5c,v5x  -0.70684   0.00000  -0.70684
:VZERX:v0,v0c,v0x  -0.19278   0.24115  -0.43394 v5,v5c,v5x  -2.60401  -1.66125  -0.94276
:LMAX-WF:   10   Non-Spherical LMAX:   4

          ATOMIC SPHERE DEPENDENT PARAMETERS FOR ATOM  Si        
:e__0001: OVERALL ENERGY PARAMETER IS    0.3000
          OVERALL BASIS SET ON ATOM IS LAPW
:E0_0001: E( 0)=    0.3000
             APW+lo
:E1_0001: E( 1)=    0.3000
             APW+lo

          ATOMIC SPHERE DEPENDENT PARAMETERS FOR ATOM  O         
:e__0002: OVERALL ENERGY PARAMETER IS    0.3000
          OVERALL BASIS SET ON ATOM IS LAPW
:E0_0002: E( 0)=    0.7000
             APW+lo
:E0_0002: E( 0)=   -1.3125   E(BOTTOM)=   -2.596   E(TOP)=   -0.029  1  2   227
             LOCAL ORBITAL
:E1_0002: E( 1)=    0.3000
             APW+lo

       K=   0.00000   0.00000   0.00000            1
:RKM  : MATRIX SIZE  1625LOs:  42  RKM= 6.97  WEIGHT= 1.00  PGR:    
       EIGENVALUES ARE:
:EIG00001:      -1.5337335   -1.4411529   -1.4411529   -1.4032324   -1.4020544
:EIG00006:      -1.4020544   -0.6733388   -0.6733388   -0.4965059   -0.4916903
:EIG00011:      -0.4798361   -0.4798361   -0.3064939   -0.3064939   -0.2950819
:EIG00016:      -0.2783848   -0.2312958   -0.2312958   -0.2287494   -0.1966308
:EIG00021:      -0.1966308   -0.1787817   -0.1550107   -0.1550107    0.4492100
:EIG00026:       0.7232531    0.7232531    0.7386762    0.7386762    0.8434397
:EIG00031:       0.8529819    0.9179382    0.9299848    0.9299849    0.9516003
:EIG00036:       0.9516004    1.0301086    1.1219674    1.1340356    1.1340356
:EIG00041:       1.1492873    1.1492873    1.2637802    1.2637802    1.3567079
:EIG00046:       1.4031372    1.4031372    1.5191633    1.5191633    1.6021189
 
:EIG00051:       1.6103445    1.6103445    1.6767738    1.8027086    1.8027086
:EIG00056:       1.8145228    1.8885771    1.9014355    1.9014355    1.9311295
:EIG00061:       1.9986548    1.9986548
       ********************************************************

:KPT   :      NUMBER OF K-POINTS:   284
       Insulator, EF-inconsistency corrected
:GAP (global)   :  0.589686 Ry =     8.023 eV (accurate value if proper k-mesh)
         Bandranges (emin - emax) and occupancy:
:BAN00014:  14   -0.319292   -0.291053  2.00000000
:BAN00015:  15   -0.301400   -0.278987  2.00000000
:BAN00016:  16   -0.281743   -0.254051  2.00000000
:BAN00017:  17   -0.264937   -0.231296  2.00000000
:BAN00018:  18   -0.253299   -0.226258  2.00000000
:BAN00019:  19   -0.246308   -0.195099  2.00000000
:BAN00020:  20   -0.227412   -0.194576  2.00000000
:BAN00021:  21   -0.210065   -0.187593  2.00000000
:BAN00022:  22   -0.190234   -0.152528  2.00000000
:BAN00023:  23   -0.175770   -0.147828  2.00000000
:BAN00024:  24   -0.171155   -0.140476  2.00000000
:BAN00025:  25    0.449210    0.655435  0.00000000
:BAN00026:  26    0.573090    0.727538  0.00000000
:BAN00027:  27    0.687615    0.744508  0.00000000
:BAN00028:  28    0.729612    0.794428  0.00000000
:BAN00029:  29    0.738676    0.800058  0.00000000
        Energy to separate low and high energystates:   -0.78952


:NOE  : NUMBER OF ELECTRONS          =   48.000

:FER  : F E R M I - ENERGY(TETRAH.M.)=  -0.1404761404
:GMA  : POTENTIAL AND CHARGE CUT-OFF  12.00 Ry**.5

:POS001: ATOM   -1 X,Y,Z = 0.46913 0.46913 0.50000  MULT= 3  ZZ= 14.000  Si        

       LMMAX 25
       LM=   0 0  1 0  2 0  2 2 -2 2  3 0  3 2 -3 2  4 0  4 2 -4 2  4 4 -4 4  5 0  5 2 -5 2  5 4
        -5 4  6 0  6 2 -6 2  6 4 -6 4  6 6 -6 6

:CHA001: TOTAL VALENCE CHARGE INSIDE SPHERE   1 =   0.4683    (RMT=  1.4000 )
:PCS001: PARTIAL CHARGES SPHERE =  1 S,P,D,F,PX,PY,PZ,D-Z2,D-X2Y2,D-XY,D-XZ,D-YZ 
:QTL001: 0.1631 0.2089 0.0866 0.0081 0.0703 0.0707 0.0679 0.0096 0.0134 0.0193 0.0225 0.0219
        Q-s-low E-s-low   Q-p-low E-p-low   Q-d-low E-d-low   Q-f-low E-f-low
:EPL001:  0.0426 -1.4842    0.0400 -1.4191    0.0132 -1.4190    0.0017 -1.4569
        Q-s-hi  E-s-hi    Q-p-hi  E-p-hi    Q-d-hi  E-d-hi    Q-f-hi  E-f-hi 
:EPH001:  0.1205 -0.6142    0.1690 -0.4687    0.0734 -0.3427    0.0064 -0.3281

                      QXX         QXY         QYY         QZZ       UP TO R
:VZZ001:            -0.21894     0.19224    -0.34952     0.56847       1.400

:POS002: ATOM   -2 X,Y,Z = 0.14451 0.41337 0.61807  MULT= 6  ZZ=  8.000  O         

       LMMAX 49

:CHA002: TOTAL VALENCE CHARGE INSIDE SPHERE   2 =   5.8956    (RMT=  1.6200 )
:PCS002: PARTIAL CHARGES SPHERE =  2 S,P,D,F,PX,PY,PZ,D-Z2,D-X2Y2,D-XY,D-XZ,D-YZ 
:QTL002: 1.6326 4.2473 0.0117 0.0037 1.4066 1.4260 1.4146 0.0019 0.0026 0.0021 0.0025 0.0026
        Q-s-low E-s-low   Q-p-low E-p-low   Q-d-low E-d-low   Q-f-low E-f-low
:EPL002:  1.5782 -1.4366    0.0179 -1.4457    0.0035 -1.4453    0.0003 -1.4392
        Q-s-hi  E-s-hi    Q-p-hi  E-p-hi    Q-d-hi  E-d-hi    Q-f-hi  E-f-hi 
:EPH002:  0.0543 -0.3922    4.2294 -0.3245    0.0082 -0.4097    0.0034 -0.3893

                      QXX         QXY         QYY         QZZ       UP TO R
:VZZ002:             1.25737    -2.79218    -1.38035     0.12298       1.620

:CHA  : TOTAL VALENCE CHARGE INSIDE UNIT CELL =      48.000000

:SUM  : SUM OF EIGENVALUES =         -29.385398412


        1.ATOM      Si                    4 CORE STATES
       CORE-FORCE in mRy/a.u. = |F|      Fx             Fy             Fz
:FCO001:   1.ATOM      1.783675543869      0.000000000000      0.000000000000     -1.783675543869

:1S 001: 1S                -130.525094101 Ry
:2S 001: 2S                  -9.542215991 Ry
:2PP001: 2P*                 -6.344054225 Ry
:2P 001: 2P                  -6.296687983 Ry

        2.ATOM      O                     1 CORE STATES
       CORE-FORCE in mRy/a.u. = |F|      Fx             Fy             Fz
:FCO002:   2.ATOM    276.523919606015    213.560191266678    109.476952742167    137.376561460472

:1S 002: 1S                 -37.323263231 Ry
:CINT001 Core Integral Atom   1    9.921255
:CINT002 Core Integral Atom   2    2.003890

       DENSITY AT NUCLEUS
        JATOM        VALENCE       SEMI-CORE          CORE           TOTAL
:RTO001:   1        4.830667     1885.991394        0.000000     1890.822061
:RTO002:   2       15.670298      303.971913        0.000000      319.642211
     
       CHARGES OF NEW CHARGE DENSITY
:NTO   : INTERSTITIAL CHARGE =    11.434839
:NPC   : PW Pseudocharge     =    27.022601
:NTO001: CHARGE SPHERE  1    =    10.389533
:NTO002: CHARGE SPHERE  2    =     7.899524

:NEC01: NUCLEAR AND ELECTRONIC CHARGE     90.00000    90.00058
     
       CHARGES OF OLD CHARGE DENSITY
:OTO   : INTERSTITIAL CHARGE =    15.689680
:OPC   : PW Pseudocharge     =    23.640838
:OTO001: CHARGE SPHERE  1    =    10.610239
:OTO002: CHARGE SPHERE  2    =     7.080276

:NEC02: NUCLEAR AND ELECTRONIC CHARGE     90.00000    90.00205
     
       CONVERGENCE TEST
:DTO001: DIFFERENCE IN SPHERE  1 =  0.3177864
:DTO002: DIFFERENCE IN SPHERE  2 =  0.9570001

:DIS  :  CHARGE DISTANCE       ( 0.9570001 for atom    2 spin 1)      0.7439289
 PW Mixed is         2149
 
******************************************************
* MULTISECANT MIXING VER9 RELEASE 10.4.0              *
* Standard Mode with controls                        *
* Fixed density scale                                *
* Regularization       1.000E-04                     *
* Trust Upper Limit    5.000E+00                     *
* Max Number of Memory Steps    8                    *
******************************************************
 
:PWTMP   6.1772E+02  5.7600E+02  7.5905E+02
:PLANE:  PW TOTAL      7.1397 DISTAN   2.36E+00  3.31E+01 %
:CHARG:  CLM/ATOM     80.8997 DISTAN   1.23E+00  1.52E+00 %
 
Step History
        DMIX         DMIXT        Red     Pred      Trust     Lambda    MagRel    MagAbs     Beta
  1   3.5000E-02   3.5000E-02 -1.00E+00  1.00E+00 -1.00E+01  1.00E+00  3.50E-02  3.50E-02  1.00E+00
:INFO :  Note, Pratt in use
:TRUST:  Step 5.25E-02  Charge 7.50E-02 (e) CTO  2.69E-01 (e) PW  3.77E-01 (e)
:DIRM :  MEMORY  0/ 8 SCALE   1.000
Performing Pseudo Compensation
Final Pseudo Compensation Rescaling     9.99810E-01
:MIX  :   PRATT  REGULARIZATION:  1.00E-04 GREED: 0.03500                  
     
       CHARGES OF MIXED CHARGE DENSITY
:CTO   : INTERSTITIAL CHARGE =    15.538759
:CPC   : PW Pseudocharge     =    25.867923
:CTO001: CHARGE SPHERE  1    =    10.602514
:CTO002: CHARGE SPHERE  2    =     7.108950

:NEC03: NUCLEAR AND ELECTRONIC CHARGE     90.00000    90.00000

PW CHANGE     H    K    L             Current                    Change               Residue
:PTO001:      0    0    0  5.45504104E-02 0.00000000E+00  2.742E-03  0.000E+00 -1.146E-03  0.000E+00
:PTO002:      0    0   -1 -7.90179931E-10-8.32781347E-20  2.681E-11 -8.328E-20  7.660E-10  0.000E+00
:PTO003:     -1    0    0 -3.92160716E-02 0.00000000E+00 -4.214E-04  0.000E+00  1.930E-03  0.000E+00
:PTO004:     -1    0   -1  4.40690004E-02-7.63297456E-02  1.453E-03 -2.517E-03  1.419E-03 -2.457E-03
:PTO005:     -1    0    1  2.65815647E-02 4.60406196E-02  3.527E-04  6.108E-04 -8.894E-06 -1.540E-05
:PTO006:      0    0   -2 -3.63893105E-10 1.49597964E-19 -3.137E-11  1.496E-19  2.510E-10  0.000E+00
:PTO007:     -2    1    0 -1.55791991E-02-2.17791997E-02 -1.012E-03 -4.923E-03 -1.721E-03 -8.290E-03
:PTO008:     -1   -1    0 -1.55791991E-02 2.17791997E-02 -1.012E-03  4.923E-03 -1.721E-03  8.290E-03
:PTO009:     -1    0   -2  3.48013410E-02 6.02776932E-02  8.664E-03  1.501E-02  1.435E-02  2.485E-02
:PTO010:     -1    0    2 -2.92100778E-04 5.05932431E-04  3.316E-03 -5.743E-03  4.915E-03 -8.514E-03
:PTO011:     -2    1   -1 -4.28054676E-02-2.22255195E-02 -1.011E-02 -9.009E-03 -1.736E-02 -1.388E-02
:PTO012:     -1   -1   -1  4.06505977E-02 2.59578633E-02  1.286E-02  4.249E-03  2.070E-02  8.090E-03

:ENE  : ********** TOTAL ENERGY IN Ry =        -2644.94509463

       TOTAL FORCE IN mRy/a.u. = |F|     Fx             Fy             Fz     with/without FOR in case.in2
:FOR001:   1.ATOM          2.444          0.000          0.000         -2.444 partial forces
:FOR002:   2.ATOM        805.219       -621.909       -318.768       -399.992 partial forces
       TOTAL FORCE WITH RESPECT TO GLOBAL CARTESIAN COORDINATES:
:FCA001:   1.ATOM                        -2.117         -1.222          0.000 partial forces
:FCA002:   2.ATOM                      -621.909       -318.768       -399.992 partial forces
       TOTAL FORCE WITH RESPECT TO THE GLOBAL COORDINATE SYSTEM:
:FGL001:   1.ATOM                -2.444013972    -2.444013972     0.000000000 partial forces
:FGL002:   2.ATOM              -718.119205495  -677.827377359  -399.992291341 partial forces
 Flat Integration
 New Mode for Coulomb Integral
 Consistent 3/8+Simpson combinations
 Extension of core to zero
 LDM version in phi
 Fifth-order quadrature in outwin


            ---------
:ITE002:  2. ITERATION
            ---------

:NATO :    2 INDEPENDENT AND    9 TOTAL ATOMS IN UNITCELL
       SUBSTANCE: SiO2 for tests                                              

       LATTICE                      = H   
:POT  : POTENTIAL OPTION EX_PBE EC_PBE VX_PBE VC_PBE
:LAT  : LATTICE CONSTANTS=  9.26193  9.26193 10.21737
:VOL  : UNIT CELL VOLUME =     759.05354
       MODE OF CALCULATION IS       = RELA
       NON-SPINPOLARIZED CALCULATION
:IFFT  : FFT-parameters:   72   72   80 Factor: 2.00


   CONVERGENCE PARAMETER FOR PSEUDOCHARGE: NCON=  9
   MAXIMAL VALUE OF RMT(JATOM)*ABSK(NKK) : RK  =19.43469


:VKCOUL :  VK-COUL convergence: 0.349E-05
       ATOMNUMBER=  1 Si         VCOUL-ZERO = -0.14345E+01
:EFG001:                        EFG         =    -0.00754   *10**21  V / m**2
                               V20  TOT/SRF=     0.00330    -0.01556
                               V22  TOT/SRF=     0.00175     0.00286
                               V22M TOT/SRF=    -0.00536    -0.01952
                               V21  TOT/SRF=     0.00000     0.00000
                               V21M TOT/SRF=     0.00000     0.00000

             -0.00016   -0.00536    0.00000        0.00373    0.00000    0.00000
             -0.00536   -0.00365    0.00000        0.00000   -0.00754    0.00000
              0.00000    0.00000    0.00381        0.00000    0.00000    0.00381

         MAIN DIRECTIONS OF THE EFG   1.0000  0.7260  0.0000
                                     -0.7260  1.0000  0.0000
                                      0.0000  0.0000  1.0000
:ANG001:  ANGLE WITH OLD X-AXIS =        36.0

:ETA001:                         ASYMM. ETA =     0.01020


       ATOMNUMBER=  2 O          VCOUL-ZERO = -0.67618E-01
:EFG002:                        EFG         =     2.60460   *10**21  V / m**2
                               V20  TOT/SRF=     0.02198     0.02280
                               V22  TOT/SRF=     0.51977     0.58293
                               V22M TOT/SRF=    -1.14425    -1.28935
                               V21  TOT/SRF=    -1.41362    -1.58829
                               V21M TOT/SRF=     1.25051     1.39987

              0.50708   -1.14425   -1.41362        2.60460    0.00000    0.00000
             -1.14425   -0.53246    1.25051        0.00000   -1.06971    0.00000
             -1.41362    1.25051    0.02538        0.00000    0.00000   -1.53489

         MAIN DIRECTIONS OF THE EFG   1.0000  1.0000  0.0148
                                     -0.7230  0.5277  1.0000
                                     -0.8986  0.6883 -0.7881
:ANG002:  ANGLE WITH OLD X-AXIS =        45.0

:ETA002:                         ASYMM. ETA =     0.17860


     HELLMANN-FEYNMAN-FORCE IN mRy/a.u. = |F|  Fx       Fy             Fz
:FHF001:   1.ATOM      2.491734375829      0.000000000000      0.000000000000     -2.491734375829

     HELLMANN-FEYNMAN-FORCE IN mRy/a.u. = |F|  Fx       Fy             Fz
:FHF002:   2.ATOM   1066.196172993884   -822.867426484703   -424.120271155649   -528.947514723441

:FIT001: LUSE= 13 SIGMA OF V-XC FIT FOR ATOM  1  0.7524944E-02
:FIT001: LUSE= 13 SIGMA OF V-XC FIT FOR ATOM  1  0.7524944E-02
:FIT002: LUSE= 13 SIGMA OF V-XC FIT FOR ATOM  2  0.1302217E-02
:FIT002: LUSE= 13 SIGMA OF V-XC FIT FOR ATOM  2  0.1302217E-02
:DEN  : DENSITY INTEGRAL  =         -1215.13495262   (Ry)
       ELS_POTENTIAL_AT Z=0 and Z=0.5:   0.04459  -0.08848
       ELS_POTENTIAL_AT Y=0 and Y=0.5:   0.00000   0.00000
:VZERO:v0,v0c,v0x  -0.69405   0.04459  -0.73864 v5,v5c,v5x  -0.76526  -0.08848  -0.67678
:VZERY:v0,v0c,v0x  -0.70670   0.00000  -0.70670 v5,v5c,v5x  -0.70670   0.00000  -0.70670
:VZERX:v0,v0c,v0x  -0.13511   0.26833  -0.40343 v5,v5c,v5x  -2.54918  -1.63690  -0.91229
:LMAX-WF:   10   Non-Spherical LMAX:   4

          ATOMIC SPHERE DEPENDENT PARAMETERS FOR ATOM  Si        
:e__0001: OVERALL ENERGY PARAMETER IS    0.1000
          OVERALL BASIS SET ON ATOM IS LAPW
:E0_0001: E( 0)=    0.1000
             APW+lo
:E1_0001: E( 1)=    0.1000
             APW+lo

          ATOMIC SPHERE DEPENDENT PARAMETERS FOR ATOM  O         
:e__0002: OVERALL ENERGY PARAMETER IS    0.1000
          OVERALL BASIS SET ON ATOM IS LAPW
:E0_0002: E( 0)=    0.5000
             APW+lo
:E0_0002: E( 0)=   -1.2840   E(BOTTOM)=   -2.572   E(TOP)=    0.004  1  2   224
             LOCAL ORBITAL
:E1_0002: E( 1)=    0.1000
             APW+lo

       K=   0.00000   0.00000   0.00000            1
:RKM  : MATRIX SIZE  1625LOs:  42  RKM= 6.97  WEIGHT= 1.00  PGR:    
       EIGENVALUES ARE:
:EIG00001:      -1.5114704   -1.4171229   -1.4171229   -1.3783384   -1.3770495
:EIG00006:      -1.3770495   -0.6547207   -0.6547207   -0.4744233   -0.4701955
:EIG00011:      -0.4580378   -0.4580378   -0.2848569   -0.2848569   -0.2728038
:EIG00016:      -0.2559530   -0.2070152   -0.2070152   -0.2046271   -0.1720140
:EIG00021:      -0.1720140   -0.1537956   -0.1295848   -0.1295848    0.4601066
:EIG00026:       0.7315640    0.7315640    0.7482354    0.7482354    0.8561543
:EIG00031:       0.8606457    0.9281280    0.9426387    0.9426387    0.9651457
:EIG00036:       0.9651457    1.0422608    1.1326046    1.1433054    1.1433054
:EIG00041:       1.1576120    1.1576120    1.2728852    1.2728852    1.3655570
:EIG00046:       1.4127596    1.4127596    1.5274859    1.5274859    1.6083277
 
:EIG00051:       1.6182040    1.6182040    1.6851222
       ********************************************************

:KPT   :      NUMBER OF K-POINTS:   284
       Insulator, EF-inconsistency corrected
:GAP (global)   :  0.574505 Ry =     7.817 eV (accurate value if proper k-mesh)
         Bandranges (emin - emax) and occupancy:
:BAN00014:  14   -0.298214   -0.268721  2.00000000
:BAN00015:  15   -0.279475   -0.256367  2.00000000
:BAN00016:  16   -0.259187   -0.230492  2.00000000
:BAN00017:  17   -0.241862   -0.207015  2.00000000
:BAN00018:  18   -0.230096   -0.202286  2.00000000
:BAN00019:  19   -0.222948   -0.170483  2.00000000
:BAN00020:  20   -0.203531   -0.169789  2.00000000
:BAN00021:  21   -0.185785   -0.162941  2.00000000
:BAN00022:  22   -0.165374   -0.126801  2.00000000
:BAN00023:  23   -0.150692   -0.122057  2.00000000
:BAN00024:  24   -0.146092   -0.114399  2.00000000
:BAN00025:  25    0.460107    0.667263  0.00000000
:BAN00026:  26    0.585697    0.739213  0.00000000
:BAN00027:  27    0.699810    0.754601  0.00000000
:BAN00028:  28    0.737561    0.804536  0.00000000
:BAN00029:  29    0.748235    0.809949  0.00000000
        Energy to separate low and high energystates:   -0.77228


:NOE  : NUMBER OF ELECTRONS          =   48.000

:FER  : F E R M I - ENERGY(TETRAH.M.)=  -0.1143988105
:GMA  : POTENTIAL AND CHARGE CUT-OFF  12.00 Ry**.5

:POS001: ATOM   -1 X,Y,Z = 0.46913 0.46913 0.50000  MULT= 3  ZZ= 14.000  Si        

       LMMAX 25
       LM=   0 0  1 0  2 0  2 2 -2 2  3 0  3 2 -3 2  4 0  4 2 -4 2  4 4 -4 4  5 0  5 2 -5 2  5 4
        -5 4  6 0  6 2 -6 2  6 4 -6 4  6 6 -6 6

:CHA001: TOTAL VALENCE CHARGE INSIDE SPHERE   1 =   0.4783    (RMT=  1.4000 )
:PCS001: PARTIAL CHARGES SPHERE =  1 S,P,D,F,PX,PY,PZ,D-Z2,D-X2Y2,D-XY,D-XZ,D-YZ 
:QTL001: 0.1666 0.2138 0.0882 0.0081 0.0719 0.0724 0.0695 0.0098 0.0137 0.0197 0.0228 0.0222
        Q-s-low E-s-low   Q-p-low E-p-low   Q-d-low E-d-low   Q-f-low E-f-low
:EPL001:  0.0437 -1.4609    0.0408 -1.3944    0.0133 -1.3944    0.0017 -1.4330
        Q-s-hi  E-s-hi    Q-p-hi  E-p-hi    Q-d-hi  E-d-hi    Q-f-hi  E-f-hi 
:EPH001:  0.1228 -0.5944    0.1730 -0.4466    0.0750 -0.3178    0.0065 -0.3020

                      QXX         QXY         QYY         QZZ       UP TO R
:VZZ001:            -0.22119     0.19311    -0.36952     0.59072       1.400

:POS002: ATOM   -2 X,Y,Z = 0.14451 0.41337 0.61807  MULT= 6  ZZ=  8.000  O         

       LMMAX 49

:CHA002: TOTAL VALENCE CHARGE INSIDE SPHERE   2 =   5.8586    (RMT=  1.6200 )
:PCS002: PARTIAL CHARGES SPHERE =  2 S,P,D,F,PX,PY,PZ,D-Z2,D-X2Y2,D-XY,D-XZ,D-YZ 
:QTL002: 1.6286 4.2139 0.0120 0.0037 1.3956 1.4147 1.4035 0.0019 0.0027 0.0021 0.0026 0.0027
        Q-s-low E-s-low   Q-p-low E-p-low   Q-d-low E-d-low   Q-f-low E-f-low
:EPL002:  1.5723 -1.4124    0.0182 -1.4218    0.0036 -1.4213    0.0003 -1.4151
        Q-s-hi  E-s-hi    Q-p-hi  E-p-hi    Q-d-hi  E-d-hi    Q-f-hi  E-f-hi 
:EPH002:  0.0562 -0.3717    4.1957 -0.3013    0.0084 -0.3862    0.0034 -0.3665

                      QXX         QXY         QYY         QZZ       UP TO R
:VZZ002:             1.21184    -2.68193    -1.33455     0.12270       1.620

:CHA  : TOTAL VALENCE CHARGE INSIDE UNIT CELL =      48.000000

:SUM  : SUM OF EIGENVALUES =         -28.275853720


        1.ATOM      Si                    4 CORE STATES
       CORE-FORCE in mRy/a.u. = |F|      Fx             Fy             Fz
:FCO001:   1.ATOM      0.445014993738      0.000000000000      0.000000000000     -0.445014993738

:1S 001: 1S                -130.531921653 Ry
:2S 001: 2S                  -9.545141121 Ry
:2PP001: 2P*                 -6.347210932 Ry
:2P 001: 2P                  -6.299826844 Ry

        2.ATOM      O                     1 CORE STATES
       CORE-FORCE in mRy/a.u. = |F|      Fx             Fy             Fz
:FCO002:   2.ATOM    280.829385204408    216.662192277201    111.739395593109    139.416446319684

:1S 002: 1S                 -37.273204591 Ry
:CINT001 Core Integral Atom   1    9.921473
:CINT002 Core Integral Atom   2    2.003877

       DENSITY AT NUCLEUS
        JATOM        VALENCE       SEMI-CORE          CORE           TOTAL
:RTO001:   1        4.956855     1886.033454        0.000000     1890.990309
:RTO002:   2       15.571695      303.953633        0.000000      319.525328
     
       CHARGES OF NEW CHARGE DENSITY
:NTO   : INTERSTITIAL CHARGE =    11.626607
:NPC   : PW Pseudocharge     =    27.040837
:NTO001: CHARGE SPHERE  1    =    10.399738
:NTO002: CHARGE SPHERE  2    =     7.862461

:NEC01: NUCLEAR AND ELECTRONIC CHARGE     90.00000    90.00059
     
       CHARGES OF OLD CHARGE DENSITY
:OTO   : INTERSTITIAL CHARGE =    15.538759
:OPC   : PW Pseudocharge     =    25.867923
:OTO001: CHARGE SPHERE  1    =    10.602514
:OTO002: CHARGE SPHERE  2    =     7.108950

:NEC02: NUCLEAR AND ELECTRONIC CHARGE     90.00000    90.00000
     
       CONVERGENCE TEST
:DTO001: DIFFERENCE IN SPHERE  1 =  0.2897082
:DTO002: DIFFERENCE IN SPHERE  2 =  0.8830632

:DIS  :  CHARGE DISTANCE       ( 0.8830632 for atom    2 spin 1)      0.6852782
 PW Mixed is         2149
 
******************************************************
* MULTISECANT MIXING VER9 RELEASE 10.4.0              *
* Standard Mode with controls                        *
* Fixed density scale                                *
* Regularization       1.000E-04                     *
* Trust Upper Limit    5.000E+00                     *
* Max Number of Memory Steps    8                    *
******************************************************
 
:PWTMP   6.1772E+02  5.7600E+02  7.5905E+02
:PLANE:  PW TOTAL      8.1602 DISTAN   1.00E+00  1.23E+01 %
:CHARG:  CLM/ATOM     80.8981 DISTAN   1.13E+00  1.40E+00 %
 
Step History
        DMIX         DMIXT        Red     Pred      Trust     Lambda    MagRel    MagAbs     Beta
  1   3.5000E-02   3.5000E-02 -1.00E+00  1.00E+00 -1.00E+01  1.00E+00  3.50E-02  3.50E-02  1.00E+00
  2   3.5000E-02   3.5000E-02 -1.00E+00  1.00E+00 -1.00E+01  1.00E+00  3.50E-02  1.19E-01  1.00E+00
:JACOBIANS    4.889E-01   2.719E-03
  
:TRUST:  Step 5.98E-02  Charge 7.50E-02 (e) CTO  2.69E-01 (e) PW  3.77E-01 (e)
:DIRM :  MEMORY  1/ 8 SCALE   1.000
:MIX  :   PRATT  REGULARIZATION:  1.00E-04 GREED: 0.05982  Expand 1.71  0.0598                
     
       CHARGES OF MIXED CHARGE DENSITY
:CTO   : INTERSTITIAL CHARGE =    15.477882
:CPC   : PW Pseudocharge     =    26.779908
:CTO001: CHARGE SPHERE  1    =    10.599355
:CTO002: CHARGE SPHERE  2    =     7.120675

:NEC03: NUCLEAR AND ELECTRONIC CHARGE     90.00000    90.00000

PW CHANGE     H    K    L             Current                    Change               Residue
:PTO001:      0    0    0  5.56716859E-02 0.00000000E+00  1.121E-03  0.000E+00 -3.611E-03  0.000E+00
:PTO002:      0    0   -1 -7.79216128E-10 0.00000000E+00  1.096E-11  0.000E+00  7.393E-10  0.000E+00
:PTO003:     -1    0    0 -3.93883741E-02 0.00000000E+00 -1.723E-04  0.000E+00  2.128E-03  0.000E+00
:PTO004:     -1    0   -1  4.46632573E-02-7.73590290E-02  5.943E-04 -1.029E-03  1.022E-04 -1.771E-04
:PTO005:     -1    0    1  2.67257739E-02 4.62903972E-02  1.442E-04  2.498E-04 -2.578E-04 -4.465E-04
:PTO006:      0    0   -2 -3.76722141E-10 0.00000000E+00 -1.283E-11  0.000E+00  2.825E-10  0.000E+00
:PTO007:     -2    1    0 -1.59930606E-02-2.37924035E-02 -4.139E-04 -2.013E-03 -6.972E-04 -3.302E-03
:PTO008:     -1   -1    0 -1.59930606E-02 2.37924035E-02 -4.139E-04  2.013E-03 -6.972E-04  3.302E-03
:PTO009:     -1    0   -2  3.83443627E-02 6.64143875E-02  3.543E-03  6.137E-03  5.560E-03  9.630E-03
:PTO010:     -1    0    2  1.06379729E-03-1.84255104E-03  1.356E-03 -2.348E-03  1.561E-03 -2.703E-03
:PTO011:     -2    1   -1 -4.69386873E-02-2.59094574E-02 -4.133E-03 -3.684E-03 -7.112E-03 -4.742E-03
:PTO012:     -1   -1   -1  4.59075914E-02 2.76953679E-02  5.257E-03  1.738E-03  7.663E-03  3.788E-03

:ENE  : ********** TOTAL ENERGY IN Ry =        -2644.83282580

       TOTAL FORCE IN mRy/a.u. = |F|     Fx             Fy             Fz     with/without FOR in case.in2
:FOR001:   1.ATOM          2.937          0.000          0.000         -2.937 partial forces
:FOR002:   2.ATOM        785.367       -606.205       -312.381       -389.531 partial forces
       TOTAL FORCE WITH RESPECT TO GLOBAL CARTESIAN COORDINATES:
:FCA001:   1.ATOM                        -2.543         -1.468          0.000 partial forces
:FCA002:   2.ATOM                      -606.205       -312.381       -389.531 partial forces
       TOTAL FORCE WITH RESPECT TO THE GLOBAL COORDINATE SYSTEM:
:FGL001:   1.ATOM                -2.936749370    -2.936749370     0.000000000 partial forces
:FGL002:   2.ATOM              -699.985510308  -662.373630716  -389.531068404 partial forces
 Flat Integration
 New Mode for Coulomb Integral
 Consistent 3/8+Simpson combinations
 Extension of core to zero
 LDM version in phi
 Fifth-order quadrature in outwin


            ---------
:ITE003:  3. ITERATION
            ---------

:NATO :    2 INDEPENDENT AND    9 TOTAL ATOMS IN UNITCELL
       SUBSTANCE: SiO2 for tests                                              

       LATTICE                      = H   
:POT  : POTENTIAL OPTION EX_PBE EC_PBE VX_PBE VC_PBE
:LAT  : LATTICE CONSTANTS=  9.26193  9.26193 10.21737
:VOL  : UNIT CELL VOLUME =     759.05354
       MODE OF CALCULATION IS       = RELA
       NON-SPINPOLARIZED CALCULATION
:IFFT  : FFT-parameters:   72   72   80 Factor: 2.00


   CONVERGENCE PARAMETER FOR PSEUDOCHARGE: NCON=  9
   MAXIMAL VALUE OF RMT(JATOM)*ABSK(NKK) : RK  =19.43469


:VKCOUL :  VK-COUL convergence: 0.340E-05
       ATOMNUMBER=  1 Si         VCOUL-ZERO = -0.14337E+01
:EFG001:                        EFG         =     0.01182   *10**21  V / m**2
                               V20  TOT/SRF=     0.01024    -0.01548
                               V22  TOT/SRF=     0.00235     0.00248
                               V22M TOT/SRF=    -0.00251    -0.01920
                               V21  TOT/SRF=     0.00000     0.00000
                               V21M TOT/SRF=     0.00000     0.00000

             -0.00356   -0.00251    0.00000       -0.00247    0.00000    0.00000
             -0.00251   -0.00826    0.00000        0.00000   -0.00935    0.00000
              0.00000    0.00000    0.01182        0.00000    0.00000    0.01182

         MAIN DIRECTIONS OF THE EFG   1.0000  0.4334  0.0000
                                     -0.4334  1.0000  0.0000
                                      0.0000  0.0000  1.0000
:ANG001:  ANGLE WITH OLD X-AXIS =        23.4

:ETA001:                         ASYMM. ETA =     0.58158


       ATOMNUMBER=  2 O          VCOUL-ZERO = -0.62390E-01
:EFG002:                        EFG         =     2.71292   *10**21  V / m**2
                               V20  TOT/SRF=     0.02371     0.02291
                               V22  TOT/SRF=     0.54172     0.58348
                               V22M TOT/SRF=    -1.19060    -1.29016
                               V21  TOT/SRF=    -1.47216    -1.58919
                               V21M TOT/SRF=     1.30408     1.40056

              0.52803   -1.19060   -1.47216        2.71292    0.00000    0.00000
             -1.19060   -0.55541    1.30408        0.00000   -1.11257    0.00000
             -1.47216    1.30408    0.02738        0.00000    0.00000   -1.60035

         MAIN DIRECTIONS OF THE EFG   1.0000  1.0000  0.0140
                                     -0.7231  0.5280  1.0000
                                     -0.8993  0.6874 -0.7885
:ANG002:  ANGLE WITH OLD X-AXIS =        45.0

:ETA002:                         ASYMM. ETA =     0.17980


     HELLMANN-FEYNMAN-FORCE IN mRy/a.u. = |F|  Fx       Fy             Fz
:FHF001:   1.ATOM      3.234106359067      0.000000000000      0.000000000000     -3.234106359067

     HELLMANN-FEYNMAN-FORCE IN mRy/a.u. = |F|  Fx       Fy             Fz
:FHF002:   2.ATOM   1059.953039679516   -817.801066220759   -422.480019777074   -525.559221499537

:FIT001: LUSE= 13 SIGMA OF V-XC FIT FOR ATOM  1  0.7706172E-02
:FIT001: LUSE= 13 SIGMA OF V-XC FIT FOR ATOM  1  0.7706172E-02
:FIT002: LUSE= 13 SIGMA OF V-XC FIT FOR ATOM  2  0.1286016E-02
:FIT002: LUSE= 13 SIGMA OF V-XC FIT FOR ATOM  2  0.1286016E-02
:DEN  : DENSITY INTEGRAL  =         -1215.73768678   (Ry)
       ELS_POTENTIAL_AT Z=0 and Z=0.5:   0.04269  -0.08431
       ELS_POTENTIAL_AT Y=0 and Y=0.5:   0.00000   0.00000
:VZERO:v0,v0c,v0x  -0.69855   0.04269  -0.74124 v5,v5c,v5x  -0.75044  -0.08431  -0.66613
:VZERY:v0,v0c,v0x  -0.70528   0.00000  -0.70528 v5,v5c,v5x  -0.70528   0.00000  -0.70528
:VZERX:v0,v0c,v0x  -0.10152   0.27945  -0.38097 v5,v5c,v5x  -2.50885  -1.62704  -0.88181
:LMAX-WF:   10   Non-Spherical LMAX:   4

          ATOMIC SPHERE DEPENDENT PARAMETERS FOR ATOM  Si        
:e__0001: OVERALL ENERGY PARAMETER IS   -0.1000
          OVERALL BASIS SET ON ATOM IS LAPW
:E0_0001: E( 0)=   -0.1000
             APW+lo
:E1_0001: E( 1)=   -0.1000
             APW+lo

          ATOMIC SPHERE DEPENDENT PARAMETERS FOR ATOM  O         
:e__0002: OVERALL ENERGY PARAMETER IS   -0.1000
          OVERALL BASIS SET ON ATOM IS LAPW
:E0_0002: E( 0)=   -0.1000
             APW+lo
:E0_0002: E( 0)=   -1.2724   E(BOTTOM)=   -2.562   E(TOP)=    0.017  1  2   229
             LOCAL ORBITAL
:E1_0002: E( 1)=   -0.1000
             APW+lo

       K=   0.00000   0.00000   0.00000            1
:RKM  : MATRIX SIZE  1625LOs:  42  RKM= 6.97  WEIGHT= 1.00  PGR:    
       EIGENVALUES ARE:
:EIG00001:      -1.5024504   -1.4073510   -1.4073510   -1.3681881   -1.3668571
:EIG00006:      -1.3668571   -0.6471713   -0.6471713   -0.4654124   -0.4614505
:EIG00011:      -0.4491633   -0.4491633   -0.2760297   -0.2760297   -0.2637048
:EIG00016:      -0.2468100   -0.1970900   -0.1970900   -0.1947595   -0.1619326
:EIG00021:      -0.1619326   -0.1435680   -0.1191615   -0.1191615    0.4645029
:EIG00026:       0.7348341    0.7348341    0.7521423    0.7521423    0.8616259
:EIG00031:       0.8636116    0.9323874    0.9479924    0.9479924    0.9711315
:EIG00036:       0.9711315    1.0475469    1.1372359    1.1471432    1.1471432
:EIG00041:       1.1610494    1.1610494    1.2766664    1.2766664    1.3693341
:EIG00046:       1.4170499    1.4170499    1.5309530    1.5309530
 
       ********************************************************

:KPT   :      NUMBER OF K-POINTS:   284
       Insulator, EF-inconsistency corrected
:GAP (global)   :  0.568199 Ry =     7.731 eV (accurate value if proper k-mesh)
         Bandranges (emin - emax) and occupancy:
:BAN00014:  14   -0.289625   -0.259628  2.00000000
:BAN00015:  15   -0.270532   -0.247132  2.00000000
:BAN00016:  16   -0.249975   -0.220856  2.00000000
:BAN00017:  17   -0.232440   -0.197090  2.00000000
:BAN00018:  18   -0.220506   -0.192483  2.00000000
:BAN00019:  19   -0.213397   -0.160409  2.00000000
:BAN00020:  20   -0.193767   -0.159642  2.00000000
:BAN00021:  21   -0.175850   -0.152854  2.00000000
:BAN00022:  22   -0.155185   -0.116253  2.00000000
:BAN00023:  23   -0.140417   -0.111483  2.00000000
:BAN00024:  24   -0.135819   -0.103696  2.00000000
:BAN00025:  25    0.464503    0.671902  0.00000000
:BAN00026:  26    0.590861    0.743990  0.00000000
:BAN00027:  27    0.704846    0.758536  0.00000000
:BAN00028:  28    0.740733    0.808672  0.00000000
:BAN00029:  29    0.752142    0.814029  0.00000000
        Energy to separate low and high energystates:   -0.76532


:NOE  : NUMBER OF ELECTRONS          =   48.000

:FER  : F E R M I - ENERGY(TETRAH.M.)=  -0.1036959267
:GMA  : POTENTIAL AND CHARGE CUT-OFF  12.00 Ry**.5

:POS001: ATOM   -1 X,Y,Z = 0.46913 0.46913 0.50000  MULT= 3  ZZ= 14.000  Si        

       LMMAX 25
       LM=   0 0  1 0  2 0  2 2 -2 2  3 0  3 2 -3 2  4 0  4 2 -4 2  4 4 -4 4  5 0  5 2 -5 2  5 4
        -5 4  6 0  6 2 -6 2  6 4 -6 4  6 6 -6 6

:CHA001: TOTAL VALENCE CHARGE INSIDE SPHERE   1 =   0.4827    (RMT=  1.4000 )
:PCS001: PARTIAL CHARGES SPHERE =  1 S,P,D,F,PX,PY,PZ,D-Z2,D-X2Y2,D-XY,D-XZ,D-YZ 
:QTL001: 0.1681 0.2160 0.0889 0.0081 0.0726 0.0732 0.0702 0.0100 0.0138 0.0198 0.0230 0.0223
        Q-s-low E-s-low   Q-p-low E-p-low   Q-d-low E-d-low   Q-f-low E-f-low
:EPL001:  0.0443 -1.4515    0.0412 -1.3844    0.0133 -1.3843    0.0017 -1.4234
        Q-s-hi  E-s-hi    Q-p-hi  E-p-hi    Q-d-hi  E-d-hi    Q-f-hi  E-f-hi 
:EPH001:  0.1238 -0.5863    0.1748 -0.4376    0.0756 -0.3075    0.0065 -0.2913

                      QXX         QXY         QYY         QZZ       UP TO R
:VZZ001:            -0.22319     0.19460    -0.37623     0.59941       1.400

:POS002: ATOM   -2 X,Y,Z = 0.14451 0.41337 0.61807  MULT= 6  ZZ=  8.000  O         

       LMMAX 49

:CHA002: TOTAL VALENCE CHARGE INSIDE SPHERE   2 =   5.8431    (RMT=  1.6200 )
:PCS002: PARTIAL CHARGES SPHERE =  2 S,P,D,F,PX,PY,PZ,D-Z2,D-X2Y2,D-XY,D-XZ,D-YZ 
:QTL002: 1.6269 4.1999 0.0121 0.0038 1.3911 1.4100 1.3989 0.0019 0.0027 0.0021 0.0026 0.0027
        Q-s-low E-s-low   Q-p-low E-p-low   Q-d-low E-d-low   Q-f-low E-f-low
:EPL002:  1.5698 -1.4025    0.0183 -1.4120    0.0036 -1.4116    0.0003 -1.4053
        Q-s-hi  E-s-hi    Q-p-hi  E-p-hi    Q-d-hi  E-d-hi    Q-f-hi  E-f-hi 
:EPH002:  0.0571 -0.3633    4.1816 -0.2918    0.0085 -0.3767    0.0034 -0.3572

                      QXX         QXY         QYY         QZZ       UP TO R
:VZZ002:             1.17538    -2.59564    -1.29657     0.12119       1.620

:CHA  : TOTAL VALENCE CHARGE INSIDE UNIT CELL =      48.000000

:SUM  : SUM OF EIGENVALUES =         -27.823234891


        1.ATOM      Si                    4 CORE STATES
       CORE-FORCE in mRy/a.u. = |F|      Fx             Fy             Fz
:FCO001:   1.ATOM      0.097862510464      0.000000000000      0.000000000000      0.097862510464

:1S 001: 1S                -130.534802499 Ry
:2S 001: 2S                  -9.546426073 Ry
:2PP001: 2P*                 -6.348590660 Ry
:2P 001: 2P                  -6.301199273 Ry

        2.ATOM      O                     1 CORE STATES
       CORE-FORCE in mRy/a.u. = |F|      Fx             Fy             Fz
:FCO002:   2.ATOM    282.619900833556    217.953393012135    112.676656971612    140.265098279538

:1S 002: 1S                 -37.252742455 Ry
:CINT001 Core Integral Atom   1    9.921562
:CINT002 Core Integral Atom   2    2.003872

       DENSITY AT NUCLEUS
        JATOM        VALENCE       SEMI-CORE          CORE           TOTAL
:RTO001:   1        5.021781     1886.050656        0.000000     1891.072437
:RTO002:   2       15.530069      303.946159        0.000000      319.476228
     
       CHARGES OF NEW CHARGE DENSITY
:NTO   : INTERSTITIAL CHARGE =    11.706115
:NPC   : PW Pseudocharge     =    27.041568
:NTO001: CHARGE SPHERE  1    =    10.404223
:NTO002: CHARGE SPHERE  2    =     7.846967

:NEC01: NUCLEAR AND ELECTRONIC CHARGE     90.00000    90.00059
     
       CHARGES OF OLD CHARGE DENSITY
:OTO   : INTERSTITIAL CHARGE =    15.477882
:OPC   : PW Pseudocharge     =    26.779908
:OTO001: CHARGE SPHERE  1    =    10.599355
:OTO002: CHARGE SPHERE  2    =     7.120675

:NEC02: NUCLEAR AND ELECTRONIC CHARGE     90.00000    90.00000
     
       CONVERGENCE TEST
:DTO001: DIFFERENCE IN SPHERE  1 =  0.2774063
:DTO002: DIFFERENCE IN SPHERE  2 =  0.8549358

:DIS  :  CHARGE DISTANCE       ( 0.8549358 for atom    2 spin 1)      0.6624260
 PW Mixed is         2149
 
******************************************************
* MULTISECANT MIXING VER9 RELEASE 10.4.0              *
* Standard Mode with controls                        *
* Fixed density scale                                *
* Regularization       1.000E-04                     *
* Trust Upper Limit    5.000E+00                     *
* Max Number of Memory Steps    8                    *
******************************************************
 
:PWTMP   6.1772E+02  5.7600E+02  7.5905E+02
:PLANE:  PW TOTAL      8.6402 DISTAN   9.15E-01  1.06E+01 %
:CHARG:  CLM/ATOM     80.8974 DISTAN   1.10E+00  1.35E+00 %
 
Step History
        DMIX         DMIXT        Red     Pred      Trust     Lambda    MagRel    MagAbs     Beta
  1   3.5000E-02   3.5000E-02 -1.00E+00  1.00E+00 -1.00E+01  1.00E+00  3.50E-02  3.50E-02  1.00E+00
  2   3.5000E-02   3.5000E-02  7.27E-01  1.00E+00 -1.00E+01  1.00E+00  3.50E-02  1.19E-01  1.00E+00
  3   5.9819E-02   5.9819E-02 -1.00E+00  1.00E+00 -1.00E+01  1.00E+00  5.98E-02  1.48E-01  1.00E+00
:JACOBIANS    7.325E-01   4.105E-03
  
:NORMS:  1/Froebius, Min, Max, Used   0.9838E+00  0.4904E+00  0.9838E+00  0.9838E+00
:INFO :  Number of Memory Steps    2 Skipping    0
:INFO :  SLambda=    0.0778568189  Max    0.0778568189
:PREDicted Charge, CTotal, PW Trust    1.229E-02   6.383E-02   6.772E-01
:PREDicted DMix, Beta, BLim   6.2200E-02  9.6242E-01  1.8704E+00

Eigenvalues, unscaled except for SY+YY
   #     SY Real        SY Imag          SS             YY         SY+YY Real      SY+YY Imag
   1   1.963113E+00   0.000000E+00   1.935787E+00   1.999947E+00   2.152788E+00   0.000000E+00
   2   1.263649E-15   0.000000E+00  -3.801097E-17   5.344308E-05   5.344037E-05   0.000000E+00
 
:INFO :  Singular value  2.153E+00 Weight  1.000E+00 Projection  1.319E-02
:INFO :  Singular value  5.344E-05 Weight  6.664E-02 Projection -7.451E+00
:RANK :  ACTIVE   1.07/2  =  53.33 % ; YY RANK   1.07/2  =  53.33 %
 
:DLIM :  Beta Active  9.718E-01
:BLIM :  VZERO Control Off
:TRUST:  Step 3.33E-01  Charge 7.50E-02 (e) CTO  2.69E-01 (e) PW  4.14E-01 (e)
:DIRM :  MEMORY  2/8  SCALE   1.000 RED  0.96 PRED  1.00 NEXT  0.99 BETA  0.97
:TRAVE:  Charge 3.98E-02 (e) CTO  2.06E-01 (e) PW  1.52E-01 (e)
:DIRP :  |MSR1|= 5.251E-02 |PRATT|= 9.153E-01 ANGLE=   7.1 DEGREES
:DIRQ :  |MSR1|= 1.187E-01 |PRATT|= 2.191E+00 ANGLE=   1.3 DEGREES
:DIRT :  |MSR1|= 1.298E-01 |PRATT|= 2.375E+00 ANGLE=   3.3 DEGREES
:MIX  :   MSD1   REGULARIZATION:  2.00E-04 GREED: 0.05480  Newton 1.00  0.0546                
     
       CHARGES OF MIXED CHARGE DENSITY
:CTO   : INTERSTITIAL CHARGE =    15.271419
:CPC   : PW Pseudocharge     =    26.786455
:CTO001: CHARGE SPHERE  1    =    10.588601
:CTO002: CHARGE SPHERE  2    =     7.160463

:NEC03: NUCLEAR AND ELECTRONIC CHARGE     90.00000    90.00000

PW CHANGE     H    K    L             Current                    Change               Residue
:PTO001:      0    0    0  5.54083112E-02 0.00000000E+00 -2.634E-04  0.000E+00 -4.627E-03  0.000E+00
:PTO002:      0    0   -1 -7.39411059E-10 0.00000000E+00  3.981E-11  0.000E+00  7.284E-10  0.000E+00
:PTO003:     -1    0    0 -3.92659154E-02 0.00000000E+00  1.225E-04  0.000E+00  2.211E-03  0.000E+00
:PTO004:     -1    0   -1  4.46345947E-02-7.73093839E-02 -2.866E-05  4.965E-05 -4.428E-04  7.670E-04
:PTO005:     -1    0    1  2.67051597E-02 4.62546923E-02 -2.061E-05 -3.570E-05 -3.624E-04 -6.276E-04
:PTO006:      0    0   -2 -3.60397873E-10 0.00000000E+00  1.632E-11  0.000E+00  2.954E-10  0.000E+00
:PTO007:     -2    1    0 -1.60050384E-02-2.38426583E-02 -1.198E-05 -5.025E-05 -2.740E-04 -1.252E-03
:PTO008:     -1   -1    0 -1.60050384E-02 2.38426583E-02 -1.198E-05  5.025E-05 -2.740E-04  1.252E-03
:PTO009:     -1    0   -2  3.84185054E-02 6.65428065E-02  7.414E-05  1.284E-04  1.950E-03  3.378E-03
:PTO010:     -1    0    2  1.06046034E-03-1.83677128E-03 -3.337E-06  5.780E-06  1.862E-04 -3.225E-04
:PTO011:     -2    1   -1 -4.70595657E-02-2.59288178E-02 -1.209E-04 -1.936E-05 -2.905E-03 -9.909E-04
:PTO012:     -1   -1   -1  4.59847972E-02 2.77903714E-02  7.721E-05  9.500E-05  2.310E-03  2.020E-03

:ENE  : ********** TOTAL ENERGY IN Ry =        -2644.78713780

       TOTAL FORCE IN mRy/a.u. = |F|     Fx             Fy             Fz     with/without FOR in case.in2
:FOR001:   1.ATOM          3.136          0.000          0.000         -3.136 partial forces
:FOR002:   2.ATOM        777.333       -599.848       -309.803       -385.294 partial forces
       TOTAL FORCE WITH RESPECT TO GLOBAL CARTESIAN COORDINATES:
:FCA001:   1.ATOM                        -2.716         -1.568          0.000 partial forces
:FCA002:   2.ATOM                      -599.848       -309.803       -385.294 partial forces
       TOTAL FORCE WITH RESPECT TO THE GLOBAL COORDINATE SYSTEM:
:FGL001:   1.ATOM                -3.136243849    -3.136243849     0.000000000 partial forces
:FGL002:   2.ATOM              -692.644431200  -656.125578405  -385.294123220 partial forces
 Flat Integration
 New Mode for Coulomb Integral
 Consistent 3/8+Simpson combinations
 Extension of core to zero
 LDM version in phi
 Fifth-order quadrature in outwin


            ---------
:ITE004:  4. ITERATION
            ---------

:NATO :    2 INDEPENDENT AND    9 TOTAL ATOMS IN UNITCELL
       SUBSTANCE: SiO2 for tests                                              

       LATTICE                      = H   
:POT  : POTENTIAL OPTION EX_PBE EC_PBE VX_PBE VC_PBE
:LAT  : LATTICE CONSTANTS=  9.26193  9.26193 10.21737
:VOL  : UNIT CELL VOLUME =     759.05354
       MODE OF CALCULATION IS       = RELA
       NON-SPINPOLARIZED CALCULATION
:IFFT  : FFT-parameters:   72   72   80 Factor: 2.00


   CONVERGENCE PARAMETER FOR PSEUDOCHARGE: NCON=  9
   MAXIMAL VALUE OF RMT(JATOM)*ABSK(NKK) : RK  =19.43469


:VKCOUL :  VK-COUL convergence: 0.341E-05
       ATOMNUMBER=  1 Si         VCOUL-ZERO = -0.14387E+01
:EFG001:                        EFG         =     0.04315   *10**21  V / m**2
                               V20  TOT/SRF=     0.03737    -0.01477
                               V22  TOT/SRF=     0.00572     0.00131
                               V22M TOT/SRF=     0.00760    -0.01807
                               V21  TOT/SRF=     0.00000     0.00000
                               V21M TOT/SRF=     0.00000     0.00000

             -0.01585    0.00760    0.00000       -0.01206    0.00000    0.00000
              0.00760   -0.02730    0.00000        0.00000   -0.03109    0.00000
              0.00000    0.00000    0.04315        0.00000    0.00000    0.04315

         MAIN DIRECTIONS OF THE EFG   1.0000 -0.4989  0.0000
                                      0.4989  1.0000  0.0000
                                      0.0000  0.0000  1.0000
:ANG001:  ANGLE WITH OLD X-AXIS =        26.5

:ETA001:                         ASYMM. ETA =     0.44099


       ATOMNUMBER=  2 O          VCOUL-ZERO = -0.52745E-01
:EFG002:                        EFG         =     3.10754   *10**21  V / m**2
                               V20  TOT/SRF=     0.03022     0.02326
                               V22  TOT/SRF=     0.62168     0.58492
                               V22M TOT/SRF=    -1.35913    -1.29205
                               V21  TOT/SRF=    -1.68545    -1.59124
                               V21M TOT/SRF=     1.49954     1.40198

              0.60423   -1.35913   -1.68545        3.10754    0.00000    0.00000
             -1.35913   -0.63913    1.49954        0.00000   -1.26840    0.00000
             -1.68545    1.49954    0.03490        0.00000    0.00000   -1.83914

         MAIN DIRECTIONS OF THE EFG   1.0000  1.0000  0.0113
                                     -0.7236  0.5293  1.0000
                                     -0.9017  0.6843 -0.7900
:ANG002:  ANGLE WITH OLD X-AXIS =        45.0

:ETA002:                         ASYMM. ETA =     0.18366


     HELLMANN-FEYNMAN-FORCE IN mRy/a.u. = |F|  Fx       Fy             Fz
:FHF001:   1.ATOM      5.251917761145      0.000000000000      0.000000000000     -5.251917761145

     HELLMANN-FEYNMAN-FORCE IN mRy/a.u. = |F|  Fx       Fy             Fz
:FHF002:   2.ATOM   1033.987463922309   -797.024009290325   -414.668928054421   -511.793399986226

:FIT001: LUSE= 13 SIGMA OF V-XC FIT FOR ATOM  1  0.8343346E-02
:FIT001: LUSE= 13 SIGMA OF V-XC FIT FOR ATOM  1  0.8343346E-02
:FIT002: LUSE= 13 SIGMA OF V-XC FIT FOR ATOM  2  0.1224339E-02
:FIT002: LUSE= 13 SIGMA OF V-XC FIT FOR ATOM  2  0.1224339E-02
:DEN  : DENSITY INTEGRAL  =         -1217.04454497   (Ry)
       ELS_POTENTIAL_AT Z=0 and Z=0.5:   0.04477  -0.08677
       ELS_POTENTIAL_AT Y=0 and Y=0.5:   0.00000   0.00000
:VZERO:v0,v0c,v0x  -0.69278   0.04477  -0.73756 v5,v5c,v5x  -0.75015  -0.08677  -0.66338
:VZERY:v0,v0c,v0x  -0.70190   0.00000  -0.70190 v5,v5c,v5x  -0.70190   0.00000  -0.70190
:VZERX:v0,v0c,v0x  -0.10638   0.27251  -0.37889 v5,v5c,v5x  -2.51091  -1.63080  -0.88011
:LMAX-WF:   10   Non-Spherical LMAX:   4

          ATOMIC SPHERE DEPENDENT PARAMETERS FOR ATOM  Si        
:e__0001: OVERALL ENERGY PARAMETER IS   -0.3000
          OVERALL BASIS SET ON ATOM IS LAPW
:E0_0001: E( 0)=   -0.3000
             APW+lo
:E1_0001: E( 1)=   -0.3000
             APW+lo

          ATOMIC SPHERE DEPENDENT PARAMETERS FOR ATOM  O         
:e__0002: OVERALL ENERGY PARAMETER IS   -0.3000
          OVERALL BASIS SET ON ATOM IS LAPW
:E0_0002: E( 0)=    0.1000
             APW+lo
:E0_0002: E( 0)=   -1.2412   E(BOTTOM)=   -2.537   E(TOP)=    0.054  1  2   232
             LOCAL ORBITAL
:E1_0002: E( 1)=   -0.3000
             APW+lo

       K=   0.00000   0.00000   0.00000            1
:RKM  : MATRIX SIZE  1625LOs:  42  RKM= 6.97  WEIGHT= 1.00  PGR:    
       EIGENVALUES ARE:
:EIG00001:      -1.4806075   -1.3830657   -1.3830657   -1.3427116   -1.3412340
:EIG00006:      -1.3412340   -0.6297372   -0.6297372   -0.4437830   -0.4406169
:EIG00011:      -0.4279233   -0.4279233   -0.2548360   -0.2548360   -0.2416037
:EIG00016:      -0.2245702   -0.1723025   -0.1723025   -0.1701022   -0.1366811
:EIG00021:      -0.1366811   -0.1177589   -0.0927758   -0.0927758    0.4719487
:EIG00026:       0.7384016    0.7384016    0.7580912    0.7580912    0.8667366
:EIG00031:       0.8721204    0.9392437    0.9577609    0.9577609    0.9838144
:EIG00036:       0.9838144    1.0574065    1.1440661    1.1520600    1.1520600
:EIG00041:       1.1646315    1.1646315    1.2812638    1.2812638    1.3737753
       ********************************************************

:KPT   :      NUMBER OF K-POINTS:   284
:GAP (global)   :  0.548331 Ry =     7.460 eV (accurate value if proper k-mesh)
         Bandranges (emin - emax) and occupancy:
:BAN00014:  14   -0.269191   -0.237702  2.00000000
:BAN00015:  15   -0.248960   -0.224605  2.00000000
:BAN00016:  16   -0.227558   -0.197272  2.00000000
:BAN00017:  17   -0.209278   -0.172302  2.00000000
:BAN00018:  18   -0.196819   -0.168087  2.00000000
:BAN00019:  19   -0.189808   -0.135101  2.00000000
:BAN00020:  20   -0.169543   -0.134149  2.00000000
:BAN00021:  21   -0.151041   -0.127558  2.00000000
:BAN00022:  22   -0.129553   -0.089414  2.00000000
:BAN00023:  23   -0.114487   -0.084550  2.00000000
:BAN00024:  24   -0.109928   -0.076382  2.00000000
:BAN00025:  25    0.471949    0.681186  0.00000000
:BAN00026:  26    0.600829    0.752403  0.00000000
:BAN00027:  27    0.714242    0.763887  0.00000000
:BAN00028:  28    0.744042    0.813962  0.00000000
:BAN00029:  29    0.758091    0.820158  0.00000000
        Energy to separate low and high energystates:   -0.74960


:NOE  : NUMBER OF ELECTRONS          =   48.000

:FER  : F E R M I - ENERGY(TETRAH.M.)=  -0.0763222132
:GMA  : POTENTIAL AND CHARGE CUT-OFF  12.00 Ry**.5

:POS001: ATOM   -1 X,Y,Z = 0.46913 0.46913 0.50000  MULT= 3  ZZ= 14.000  Si        

       LMMAX 25
[...]
:DIRP :  |MSR1|= 1.113E-03 |PRATT|= 1.890E-03 ANGLE=   5.3 DEGREES
:DIRQ :  |MSR1|= 1.147E-03 |PRATT|= 1.625E-03 ANGLE=   9.9 DEGREES
:DIRT :  |MSR1|= 1.598E-03 |PRATT|= 2.493E-03 ANGLE=   9.3 DEGREES
:MIX  :   MSE1   REGULARIZATION:  5.12E-04 GREED: 0.29206  Newton 1.00  0.6413                
     
       CHARGES OF MIXED CHARGE DENSITY
:CTO   : INTERSTITIAL CHARGE =    13.599253
:CPC   : PW Pseudocharge     =    26.468602
:CTO001: CHARGE SPHERE  1    =    10.495448
:CTO002: CHARGE SPHERE  2    =     7.485734

:NEC03: NUCLEAR AND ELECTRONIC CHARGE     90.00000    90.00000

PW CHANGE     H    K    L             Current                    Change               Residue
:PTO001:      0    0    0  5.27865991E-02 0.00000000E+00 -4.781E-06  0.000E+00 -7.211E-06  0.000E+00
:PTO002:      0    0   -1 -4.91982429E-11 0.00000000E+00 -4.834E-13  0.000E+00 -8.462E-13  0.000E+00
:PTO003:     -1    0    0 -3.84378248E-02 0.00000000E+00  1.361E-06  0.000E+00  2.247E-06  0.000E+00
:PTO004:     -1    0   -1  4.44395600E-02-7.69715740E-02 -4.868E-06  8.432E-06 -7.854E-06  1.360E-05
:PTO005:     -1    0    1  2.66893530E-02 4.62273144E-02 -2.381E-06 -4.125E-06 -3.896E-06 -6.748E-06
:PTO006:      0    0   -2 -7.99334449E-11 0.00000000E+00 -2.181E-13  0.000E+00 -3.854E-13  0.000E+00
:PTO007:     -2    1    0 -1.57281533E-02-2.35669533E-02  3.109E-06  2.486E-06  5.197E-06  3.890E-06
:PTO008:     -1   -1    0 -1.57281533E-02 2.35669533E-02  3.109E-06 -2.486E-06  5.197E-06 -3.890E-06
:PTO009:     -1    0   -2  3.76296753E-02 6.51765126E-02 -3.299E-06 -5.715E-06 -4.986E-06 -8.636E-06
:PTO010:     -1    0    2  6.73758287E-04-1.16698364E-03  1.871E-06 -3.240E-06  3.494E-06 -6.051E-06
:PTO011:     -2    1   -1 -4.66820108E-02-2.44819686E-02  3.816E-06  6.185E-07  5.812E-06  1.546E-07
:PTO012:     -1   -1   -1  4.45430116E-02 2.81868239E-02 -2.444E-06 -2.995E-06 -3.040E-06 -4.956E-06

:ENE  : *WARNING** TOTAL ENERGY IN Ry =        -2644.25705138

       TOTAL FORCE IN mRy/a.u. = |F|     Fx             Fy             Fz     with/without FOR in case.in2
:FOR001:   1.ATOM          2.559          0.000          0.000          2.559 partial forces
:FOR002:   2.ATOM        153.461       -118.734        -62.000        -74.890 partial forces
       TOTAL FORCE WITH RESPECT TO GLOBAL CARTESIAN COORDINATES:
:FCA001:   1.ATOM                         2.216          1.280          0.000 partial forces
:FCA002:   2.ATOM                      -118.734        -62.000        -74.890 partial forces
       TOTAL FORCE WITH RESPECT TO THE GLOBAL COORDINATE SYSTEM:
:FGL001:   1.ATOM                 2.559373682     2.559373682     0.000000000 partial forces
:FGL002:   2.ATOM              -137.102490971  -130.551009018   -74.890463513 partial forces
 Flat Integration
 New Mode for Coulomb Integral
 Consistent 3/8+Simpson combinations
 Extension of core to zero
 LDM version in phi
 Fifth-order quadrature in outwin


            ---------
:ITE012: 12. ITERATION
            ---------

:NATO :    2 INDEPENDENT AND    9 TOTAL ATOMS IN UNITCELL
       SUBSTANCE: SiO2 for tests                                              

       LATTICE                      = H   
:POT  : POTENTIAL OPTION EX_PBE EC_PBE VX_PBE VC_PBE
:LAT  : LATTICE CONSTANTS=  9.26193  9.26193 10.21737
:VOL  : UNIT CELL VOLUME =     759.05354
       MODE OF CALCULATION IS       = RELA
       NON-SPINPOLARIZED CALCULATION
:IFFT  : FFT-parameters:   72   72   80 Factor: 2.00


   CONVERGENCE PARAMETER FOR PSEUDOCHARGE: NCON=  9
   MAXIMAL VALUE OF RMT(JATOM)*ABSK(NKK) : RK  =19.43469


:VKCOUL :  VK-COUL convergence: 0.341E-05
       ATOMNUMBER=  1 Si         VCOUL-ZERO = -0.14537E+01
:EFG001:                        EFG         =     0.77691   *10**21  V / m**2
                               V20  TOT/SRF=     0.67282     0.03432
                               V22  TOT/SRF=     0.18588     0.00548
                               V22M TOT/SRF=     0.17946    -0.00600
                               V21  TOT/SRF=     0.00000     0.00000
                               V21M TOT/SRF=     0.00000     0.00000

             -0.20258    0.17946    0.00000       -0.13008    0.00000    0.00000
              0.17946   -0.57433    0.00000        0.00000   -0.64682    0.00000
              0.00000    0.00000    0.77691        0.00000    0.00000    0.77691

         MAIN DIRECTIONS OF THE EFG   1.0000 -0.4040  0.0000
                                      0.4040  1.0000  0.0000
                                      0.0000  0.0000  1.0000
:ANG001:  ANGLE WITH OLD X-AXIS =        22.0

:ETA001:                         ASYMM. ETA =     0.66512


       ATOMNUMBER=  2 O          VCOUL-ZERO =  0.53154E-01
:EFG002:                        EFG         =     7.67485   *10**21  V / m**2
                               V20  TOT/SRF=     0.11070     0.02533
                               V22  TOT/SRF=     1.55505     0.57284
                               V22M TOT/SRF=    -3.26494    -1.26612
                               V21  TOT/SRF=    -4.16302    -1.55600
                               V21M TOT/SRF=     3.79487     1.36717

              1.49114   -3.26494   -4.16302        7.67485    0.00000    0.00000
             -3.26494   -1.61897    3.79487        0.00000   -3.03463    0.00000
             -4.16302    3.79487    0.12783        0.00000    0.00000   -4.64022

         MAIN DIRECTIONS OF THE EFG   1.0000  1.0000 -0.0194
                                     -0.7255  0.5515  1.0000
                                     -0.9164  0.6546 -0.8128
:ANG002:  ANGLE WITH OLD X-AXIS =        45.0

:ETA002:                         ASYMM. ETA =     0.20920


     HELLMANN-FEYNMAN-FORCE IN mRy/a.u. = |F|  Fx       Fy             Fz
:FHF001:   1.ATOM     25.586064636664      0.000000000000      0.000000000000     25.586064636664

     HELLMANN-FEYNMAN-FORCE IN mRy/a.u. = |F|  Fx       Fy             Fz
:FHF002:   2.ATOM    495.968470773794   -381.797829753506   -198.919574425200   -246.264378479117

:FIT001: LUSE= 13 SIGMA OF V-XC FIT FOR ATOM  1  0.1626471E-01
:FIT001: LUSE= 13 SIGMA OF V-XC FIT FOR ATOM  1  0.1626471E-01
:FIT002: LUSE= 13 SIGMA OF V-XC FIT FOR ATOM  2  0.4788687E-03
:FIT002: LUSE= 13 SIGMA OF V-XC FIT FOR ATOM  2  0.4788687E-03
:DEN  : DENSITY INTEGRAL  =         -1225.81021242   (Ry)
       ELS_POTENTIAL_AT Z=0 and Z=0.5:   0.05835  -0.10459
       ELS_POTENTIAL_AT Y=0 and Y=0.5:   0.00000   0.00000
:VZERO:v0,v0c,v0x  -0.62115   0.05835  -0.67951 v5,v5c,v5x  -0.73874  -0.10459  -0.63415
:VZERY:v0,v0c,v0x  -0.65986   0.00000  -0.65986 v5,v5c,v5x  -0.65986   0.00000  -0.65986
:VZERX:v0,v0c,v0x  -0.13557   0.21044  -0.34601 v5,v5c,v5x  -2.51140  -1.64605  -0.86535
:LMAX-WF:   10   Non-Spherical LMAX:   4

          ATOMIC SPHERE DEPENDENT PARAMETERS FOR ATOM  Si        
:e__0001: OVERALL ENERGY PARAMETER IS   -0.1024
          OVERALL BASIS SET ON ATOM IS LAPW
:E0_0001: E( 0)=   -0.1024
             APW+lo
:E1_0001: E( 1)=   -0.1024
             APW+lo

          ATOMIC SPHERE DEPENDENT PARAMETERS FOR ATOM  O         
:e__0002: OVERALL ENERGY PARAMETER IS   -0.1024
          OVERALL BASIS SET ON ATOM IS LAPW
:E0_0002: E( 0)=    0.2976
             APW+lo
:E0_0002: E( 0)=   -1.0306   E(BOTTOM)=   -2.360   E(TOP)=    0.299  1  2   232
             LOCAL ORBITAL
:E1_0002: E( 1)=   -0.1024
             APW+lo
:WARN  : P(J,JATOM) almost zero (     -0.326E-03). Shifted Energy by -0.01 down to     0.2876

       K=   0.00000   0.00000   0.00000            1
:RKM  : MATRIX SIZE  1625LOs:  42  RKM= 6.97  WEIGHT= 1.00  PGR:    
       EIGENVALUES ARE:
:EIG00001:      -1.3309390   -1.2179211   -1.2179211   -1.1696075   -1.1674346
:EIG00006:      -1.1674346   -0.5068275   -0.5068275   -0.2999525   -0.2970693
:EIG00011:      -0.2848420   -0.2848420   -0.1184211   -0.1184211   -0.1000749
:EIG00016:      -0.0818406   -0.0102022   -0.0102022   -0.0082712    0.0243556
:EIG00021:       0.0243556    0.0471279    0.0757040    0.0757040    0.5421069
:EIG00026:       0.7849325    0.7849325    0.8209400    0.8209400    0.9112930
:EIG00031:       0.9610708    1.0028634    1.0324181    1.0324182    1.0840933
:EIG00036:       1.0840933    1.1398649    1.1991511    1.2039433    1.2039433
:EIG00041:       1.2086557    1.2086557    1.3281773    1.3281773    1.4187376
:EIG00046:       1.4692715    1.4692715    1.5706946    1.5706946
 
       ********************************************************

:KPT   :      NUMBER OF K-POINTS:   284
       Insulator, EF-inconsistency corrected
:GAP (global)   :  0.443525 Ry =     6.034 eV (accurate value if proper k-mesh)
         Bandranges (emin - emax) and occupancy:
:BAN00014:  14   -0.136066   -0.096027  2.00000000
:BAN00015:  15   -0.113787   -0.077927  2.00000000
:BAN00016:  16   -0.082791   -0.045082  2.00000000
:BAN00017:  17   -0.059649   -0.010202  2.00000000
:BAN00018:  18   -0.043942   -0.010134  2.00000000
:BAN00019:  19   -0.035072    0.027078  2.00000000
:BAN00020:  20   -0.013726    0.029631  2.00000000
:BAN00021:  21    0.009025    0.034779  2.00000000
:BAN00022:  22    0.035151    0.082243  2.00000000
:BAN00023:  23    0.051909    0.088379  2.00000000
:BAN00024:  24    0.055733    0.098581  2.00000000
:BAN00025:  25    0.542107    0.764334  0.00000000
:BAN00026:  26    0.686129    0.821298  0.00000000
:BAN00027:  27    0.766060    0.825776  0.00000000
:BAN00028:  28    0.782053    0.866108  0.00000000
:BAN00029:  29    0.815740    0.878920  0.00000000
        Energy to separate low and high energystates:   -0.63732


:NOE  : NUMBER OF ELECTRONS          =   48.000

:FER  : F E R M I - ENERGY(TETRAH.M.)=   0.0985814401
:GMA  : POTENTIAL AND CHARGE CUT-OFF  12.00 Ry**.5

:POS001: ATOM   -1 X,Y,Z = 0.46913 0.46913 0.50000  MULT= 3  ZZ= 14.000  Si        

       LMMAX 25
       LM=   0 0  1 0  2 0  2 2 -2 2  3 0  3 2 -3 2  4 0  4 2 -4 2  4 4 -4 4  5 0  5 2 -5 2  5 4
        -5 4  6 0  6 2 -6 2  6 4 -6 4  6 6 -6 6

:CHA001: TOTAL VALENCE CHARGE INSIDE SPHERE   1 =   0.5715    (RMT=  1.4000 )
:PCS001: PARTIAL CHARGES SPHERE =  1 S,P,D,F,PX,PY,PZ,D-Z2,D-X2Y2,D-XY,D-XZ,D-YZ 
:QTL001: 0.1979 0.2594 0.1046 0.0082 0.0870 0.0882 0.0841 0.0126 0.0167 0.0232 0.0264 0.0256
        Q-s-low E-s-low   Q-p-low E-p-low   Q-d-low E-d-low   Q-f-low E-f-low
:EPL001:  0.0556 -1.2698    0.0482 -1.1884    0.0142 -1.1884    0.0016 -1.2358
        Q-s-hi  E-s-hi    Q-p-hi  E-p-hi    Q-d-hi  E-d-hi    Q-f-hi  E-f-hi 
:EPH001:  0.1423 -0.4352    0.2112 -0.2695    0.0904 -0.1153    0.0066 -0.0887

                      QXX         QXY         QYY         QZZ       UP TO R
:VZZ001:            -0.19412     0.19316    -0.55973     0.75385       1.400

:POS002: ATOM   -2 X,Y,Z = 0.14451 0.41337 0.61807  MULT= 6  ZZ=  8.000  O         

       LMMAX 49

:CHA002: TOTAL VALENCE CHARGE INSIDE SPHERE   2 =   5.4819    (RMT=  1.6200 )
:PCS002: PARTIAL CHARGES SPHERE =  2 S,P,D,F,PX,PY,PZ,D-Z2,D-X2Y2,D-XY,D-XZ,D-YZ 
:QTL002: 1.5832 3.8791 0.0148 0.0043 1.2867 1.3003 1.2921 0.0024 0.0032 0.0027 0.0032 0.0032
        Q-s-low E-s-low   Q-p-low E-p-low   Q-d-low E-d-low   Q-f-low E-f-low
:EPL002:  1.5079 -1.2108    0.0200 -1.2243    0.0041 -1.2228    0.0004 -1.2144
        Q-s-hi  E-s-hi    Q-p-hi  E-p-hi    Q-d-hi  E-d-hi    Q-f-hi  E-f-hi 
:EPH002:  0.0753 -0.2127    3.8590 -0.1151    0.0107 -0.1944    0.0040 -0.1836

                      QXX         QXY         QYY         QZZ       UP TO R
:VZZ002:             0.86916    -1.85366    -0.96479     0.09563       1.620

:CHA  : TOTAL VALENCE CHARGE INSIDE UNIT CELL =      48.000000

:SUM  : SUM OF EIGENVALUES =         -19.344766963


        1.ATOM      Si                    4 CORE STATES
       CORE-FORCE in mRy/a.u. = |F|      Fx             Fy             Fz
:FCO001:   1.ATOM     22.979847239985      0.000000000000      0.000000000000    -22.979847239985

:1S 001: 1S                -130.616515471 Ry
:2S 001: 2S                  -9.613118640 Ry
:2PP001: 2P*                 -6.415177297 Ry
:2P 001: 2P                  -6.367670061 Ry

        2.ATOM      O                     1 CORE STATES
       CORE-FORCE in mRy/a.u. = |F|      Fx             Fy             Fz
:FCO002:   2.ATOM    344.672426438174    264.634835637356    138.004800035529    172.401161484260

:1S 002: 1S                 -36.901764802 Ry
:CINT001 Core Integral Atom   1    9.923980
:CINT002 Core Integral Atom   2    2.003721

       DENSITY AT NUCLEUS
        JATOM        VALENCE       SEMI-CORE          CORE           TOTAL
:RTO001:   1        5.897708     1886.365900        0.000000     1892.263608
:RTO002:   2       14.552109      304.029887        0.000000      318.581996
     
       CHARGES OF NEW CHARGE DENSITY
:NTO   : INTERSTITIAL CHARGE =    13.600395
:NPC   : PW Pseudocharge     =    26.467799
:NTO001: CHARGE SPHERE  1    =    10.495503
:NTO002: CHARGE SPHERE  2    =     7.485619

:NEC01: NUCLEAR AND ELECTRONIC CHARGE     90.00000    90.00062
     
       CHARGES OF OLD CHARGE DENSITY
:OTO   : INTERSTITIAL CHARGE =    13.599253
:OPC   : PW Pseudocharge     =    26.468602
:OTO001: CHARGE SPHERE  1    =    10.495448
:OTO002: CHARGE SPHERE  2    =     7.485734

:NEC02: NUCLEAR AND ELECTRONIC CHARGE     90.00000    90.00000
     
       CONVERGENCE TEST
:DTO001: DIFFERENCE IN SPHERE  1 =  0.0001395
:DTO002: DIFFERENCE IN SPHERE  2 =  0.0002099

:DIS  :  CHARGE DISTANCE       ( 0.0002099 for atom    2 spin 1)      0.0001864
 PW Mixed is         2149
 
******************************************************
* MULTISECANT MIXING VER9 RELEASE 10.4.0              *
* Standard Mode with controls                        *
* Fixed density scale                                *
* Regularization       1.000E-04                     *
* Trust Upper Limit    5.000E+00                     *
* Max Number of Memory Steps    8                    *
******************************************************
 
:PWTMP   6.1772E+02  5.7600E+02  7.5905E+02
:PLANE:  PW TOTAL      8.2444 DISTAN   8.10E-04  9.82E-03 %
:CHARG:  CLM/ATOM     80.7736 DISTAN   3.09E-04  3.83E-04 %
 
Step History
        DMIX         DMIXT        Red     Pred      Trust     Lambda    MagRel    MagAbs     Beta
  4   5.4805E-02   5.4805E-02  8.71E-01  9.93E-01  3.33E-01  1.43E+00  5.46E-02  1.30E-01  9.72E-01
  5   1.3701E-01   4.4530E-02  8.04E-01  8.17E-01  3.88E-01  1.66E+00  8.73E-02  1.81E-01  1.00E+00
  6   3.1994E-01   1.2077E-01  7.02E-01  7.09E-01  5.67E-01  1.93E+00  1.51E-01  2.51E-01  1.00E+00
  7   3.5000E-01   2.3049E-01  5.35E-01  5.61E-01  9.98E-01  1.26E+00  3.49E-01  4.08E-01  1.00E+00
  8   3.5000E-01   3.4999E-01  1.15E-01  1.54E-01  2.54E+00  1.40E+00  1.00E+00  6.25E-01  1.00E+00
  9   2.3419E-01   2.3419E-01  6.30E-01  8.36E-01  8.20E+00  1.05E+00  3.35E-01  2.41E-02  1.00E+00
 10   3.5000E-01   3.5000E-01  1.45E-01  2.61E-01  1.09E+01  1.40E+00  9.43E-01  4.28E-02  1.00E+00
 11   2.8790E-01   2.8790E-01  3.80E-01  4.53E-01  1.46E+01  1.24E+00  8.07E-01  5.30E-03  1.00E+00
 12   2.9206E-01   2.9206E-01 -1.00E+00  5.29E-01  1.94E+01  1.00E+00  6.41E-01  1.60E-03  9.69E-01
:JACOBIANS    2.045E+00   2.285E+00
  
:NORMS:  1/Froebius, Min, Max, Used   0.8686E+00  0.7407E+00  0.1058E+01  0.8686E+00
:INFO :  Number of Memory Steps    8 Skipping    3
:INFO :  SLambda=    1.2026801151  Max    1.2026801151
:PREDicted Charge, CTotal, PW Trust    8.719E-05   4.375E-04   4.005E-03
:PREDicted DMix, Beta, BLim   5.4521E-01  1.2817E+00  1.7904E+01

Eigenvalues, unscaled except for SY+YY
   #     SY Real        SY Imag          SS             YY         SY+YY Real      SY+YY Imag
   1   2.915968E+00   0.000000E+00   3.176952E+00   4.301108E+00   7.758055E+00   0.000000E+00
   2   1.796422E+00   0.000000E+00   1.777515E+00   1.858928E+00   4.018355E+00   0.000000E+00
   3   8.884638E-01   0.000000E+00   7.802686E-01   1.060270E+00   2.137964E+00   0.000000E+00
   4   3.595441E-01   0.000000E+00   2.288315E-01   5.243024E-01   9.787840E-01   0.000000E+00
   5   1.480466E-01   0.000000E+00   6.768615E-02   2.480825E-01   4.459020E-01   0.000000E+00
   6   5.926599E-03   0.000000E+00   4.311872E-03   7.281715E-03   1.454556E-02   0.000000E+00
   7   1.722749E-06   0.000000E+00   6.537077E-06   2.405205E-05   4.554775E-06   0.000000E+00
   8   1.158691E-05   0.000000E+00   1.125502E-06   2.492193E-06   3.773321E-05   0.000000E+00
 
:INFO :  Singular value  7.794E+00 Weight  1.000E+00 Projection -9.039E-05
:INFO :  Singular value  4.012E+00 Weight  1.000E+00 Projection -5.117E-06
:INFO :  Singular value  2.135E+00 Weight  1.000E+00 Projection -5.393E-04
:INFO :  Singular value  9.782E-01 Weight  1.000E+00 Projection  4.982E-04
:INFO :  Singular value  4.455E-01 Weight  1.000E+00 Projection -9.664E-04
:INFO :  Singular value  1.455E-02 Weight  9.991E-01 Projection -1.914E-03
:INFO :  Singular value  3.774E-05 Weight  7.642E-03 Projection  7.344E-04
:INFO :  Singular value  4.553E-06 Weight  1.121E-04 Projection -2.094E-05
:RANK :  ACTIVE   6.01/8  =  75.09 % ; YY RANK   6.00/8  =  75.00 %
 
:BLIM :  VZERO Control Off
:TRUST:  Step 2.25E+01  Charge 9.37E-02 (e) CTO  4.39E-01 (e) PW  5.18E-01 (e)
:DIRM :  MEMORY  8/8  SCALE   1.000 RED  0.41 PRED  0.53 NEXT  0.57 
:TRAVE:  Charge 3.12E-03 (e) CTO  1.62E-02 (e) PW  1.65E-02 (e)
:DIRP :  |MSR1|= 6.051E-04 |PRATT|= 8.100E-04 ANGLE=   8.5 DEGREES
:DIRQ :  |MSR1|= 3.838E-04 |PRATT|= 6.179E-04 ANGLE=  33.2 DEGREES
:DIRT :  |MSR1|= 7.165E-04 |PRATT|= 1.019E-03 ANGLE=  20.6 DEGREES
:MIX  :   MSE1   REGULARIZATION:  4.30E-04 GREED: 0.33912  Newton 1.00  0.7033                
     
       CHARGES OF MIXED CHARGE DENSITY
:CTO   : INTERSTITIAL CHARGE =    13.599436
:CPC   : PW Pseudocharge     =    26.467065
:CTO001: CHARGE SPHERE  1    =    10.495484
:CTO002: CHARGE SPHERE  2    =     7.485685

:NEC03: NUCLEAR AND ELECTRONIC CHARGE     90.00000    90.00000

PW CHANGE     H    K    L             Current                    Change               Residue
:PTO001:      0    0    0  5.27848150E-02 0.00000000E+00 -1.784E-06  0.000E+00 -1.964E-06  0.000E+00
:PTO002:      0    0   -1 -4.94644542E-11 0.00000000E+00 -2.662E-13  0.000E+00 -3.616E-13  0.000E+00
:PTO003:     -1    0    0 -3.84361363E-02 0.00000000E+00  1.689E-06  0.000E+00  2.993E-06  0.000E+00
:PTO004:     -1    0   -1  4.44370973E-02-7.69673084E-02 -2.463E-06  4.266E-06 -3.056E-06  5.293E-06
:PTO005:     -1    0    1  2.66878431E-02 4.62246991E-02 -1.510E-06 -2.615E-06 -2.106E-06 -3.648E-06
:PTO006:      0    0   -2 -8.00565038E-11 0.00000000E+00 -1.231E-13  0.000E+00 -1.654E-13  0.000E+00
:PTO007:     -2    1    0 -1.57269498E-02-2.35661094E-02  1.204E-06  8.439E-07  1.164E-06  9.745E-07
:PTO008:     -1   -1    0 -1.57269498E-02 2.35661094E-02  1.204E-06 -8.439E-07  1.164E-06 -9.745E-07
:PTO009:     -1    0   -2  3.76285636E-02 6.51745872E-02 -1.112E-06 -1.925E-06 -1.335E-06 -2.312E-06
:PTO010:     -1    0    2  6.74767084E-04-1.16873093E-03  1.009E-06 -1.747E-06  1.057E-06 -1.831E-06
:PTO011:     -2    1   -1 -4.66804102E-02-2.44823731E-02  1.601E-06 -4.045E-07  2.234E-06 -6.778E-07
:PTO012:     -1   -1   -1  4.45425615E-02 2.81852355E-02 -4.500E-07 -1.588E-06 -5.301E-07 -2.274E-06

:ENE  : *WARNING** TOTAL ENERGY IN Ry =        -2644.25706619

       TOTAL FORCE IN mRy/a.u. = |F|     Fx             Fy             Fz     with/without FOR in case.in2
:FOR001:   1.ATOM          2.606          0.000          0.000          2.606 partial forces
:FOR002:   2.ATOM        151.306       -117.163        -60.915        -73.863 partial forces
       TOTAL FORCE WITH RESPECT TO GLOBAL CARTESIAN COORDINATES:
:FCA001:   1.ATOM                         2.257          1.303          0.000 partial forces
:FCA002:   2.ATOM                      -117.163        -60.915        -73.863 partial forces
       TOTAL FORCE WITH RESPECT TO THE GLOBAL COORDINATE SYSTEM:
:FGL001:   1.ATOM                 2.606217397     2.606217397     0.000000000 partial forces
:FGL002:   2.ATOM              -135.288172384  -128.558860582   -73.863216995 partial forces
