
:LABEL1: Calculations in /home/cmueller/wien/FZU/src/FeRh/FFM
:LABEL2: on cv036 at Wed Mar 12 11:52:43 AM CET 2025
:LABEL3: using WIEN2k_19.1 (Release 25/6/2019) in /home/cmueller/WIENROOT
:LABEL4: using the command: runsp_lapw
 Flat Integration
 New Mode for Coulomb Integral
 Consistent 3/8+Simpson combinations
 Extension of core to zero
 LDM version in phi
 Fifth-order quadrature in outwin


            ---------
:ITE001:  1. ITERATION
            ---------

:NATO :    3 INDEPENDENT AND    4 TOTAL ATOMS IN UNITCELL
       SUBSTANCE: FeRh                                                        

       LATTICE                      = F   
:POT  : POTENTIAL OPTION EX_PBE EC_PBE VX_PBE VC_PBE
:LAT  : LATTICE CONSTANTS= 11.27222 11.27222 11.27222    1.571    1.571    1.571
:VOL  : UNIT CELL VOLUME =     358.07036
       MODE OF CALCULATION IS       = RELA
       SPINPOLARIZED CALCULATION
:IFFT  : FFT-parameters:   90   90   90 Factor: 2.00


   CONVERGENCE PARAMETER FOR PSEUDOCHARGE: NCON=  9
   MAXIMAL VALUE OF RMT(JATOM)*ABSK(NKK) : RK  =29.05063


:VKCOUL :  VK-COUL convergence: 0.126E-05
       ATOMNUMBER=  1 Fe1        VCOUL-ZERO =  0.65836E+00
       ATOMNUMBER=  2 Fe2        VCOUL-ZERO =  0.65836E+00
       ATOMNUMBER=  3 Rh1        VCOUL-ZERO =  0.62973E+00
:FIT001: LUSE= 13 SIGMA OF V-XC FIT FOR ATOM  1  0.7350795E-02
:FIT001: LUSE= 13 SIGMA OF V-XC FIT FOR ATOM  1  0.2536863E-02
:FIT002: LUSE= 13 SIGMA OF V-XC FIT FOR ATOM  2  0.7350795E-02
:FIT002: LUSE= 13 SIGMA OF V-XC FIT FOR ATOM  2  0.2536863E-02
:FIT003: LUSE= 13 SIGMA OF V-XC FIT FOR ATOM  3  0.1535975E-02
:FIT003: LUSE= 13 SIGMA OF V-XC FIT FOR ATOM  3  0.2664318E-03
:DEN  : DENSITY INTEGRAL  =         -9889.60555609   (Ry)
       ELS_POTENTIAL_AT Z=0 and Z=0.5:  -0.23886  -0.23886
       ELS_POTENTIAL_AT Y=0 and Y=0.5:   0.00000   0.00000
:VZERO:v0,v0c,v0x  -1.05054  -0.23886  -0.81168 v5,v5c,v5x  -1.05054  -0.23886  -0.81168
:VZERY:v0,v0c,v0x  -0.92344   0.00000  -0.92344 v5,v5c,v5x  -0.92344   0.00000  -0.92344
:VZERX:v0,v0c,v0x  -0.92344   0.00000  -0.92344 v5,v5c,v5x  -0.92344   0.00000  -0.92344
:LMAX-WF:   10   Non-Spherical LMAX:   4

          ATOMIC SPHERE DEPENDENT PARAMETERS FOR ATOM  Fe1       
:e__0001: OVERALL ENERGY PARAMETER IS    0.3000
          OVERALL BASIS SET ON ATOM IS LAPW
:E1_0001: E( 1)=    0.3000
             APW+lo
:E1_0001: E( 1)=   -3.1653   E(BOTTOM)=   -3.198   E(TOP)=   -3.132  1  2   181
             LOCAL ORBITAL
:E2_0001: E( 2)=    0.6147   E(BOTTOM)=    0.370   E(TOP)=    0.859  0  1   131
             APW+lo
:E0_0001: E( 0)=    0.3000
             APW+lo

          ATOMIC SPHERE DEPENDENT PARAMETERS FOR ATOM  Fe2       
:e__0002: OVERALL ENERGY PARAMETER IS    0.3000
          OVERALL BASIS SET ON ATOM IS LAPW
:E1_0002: E( 1)=    0.3000
             APW+lo
:E1_0002: E( 1)=   -3.1653   E(BOTTOM)=   -3.198   E(TOP)=   -3.132  1  2   181
             LOCAL ORBITAL
:E2_0002: E( 2)=    0.6147   E(BOTTOM)=    0.370   E(TOP)=    0.859  0  1   131
             APW+lo
:E0_0002: E( 0)=    0.3000
             APW+lo

          ATOMIC SPHERE DEPENDENT PARAMETERS FOR ATOM  Rh1       
:e__0003: OVERALL ENERGY PARAMETER IS    0.3000
          OVERALL BASIS SET ON ATOM IS LAPW
:E1_0003: E( 1)=    0.3000
             APW+lo
:E1_0003: E( 1)=   -2.6264   E(BOTTOM)=   -2.727   E(TOP)=   -2.526  2  3   169
             LOCAL ORBITAL
:E2_0003: E( 2)=    0.3000   E(BOTTOM)=    0.162   E(TOP)= -200.000  1 -1    93
             APW+lo
:E0_0003: E( 0)=    0.3000
             APW+lo

       K=   0.00000   0.00000   0.00000            1
:RKM  : MATRIX SIZE   185LOs:  48  RKM= 6.64  WEIGHT= 1.00  PGR:    
       EIGENVALUES ARE:
:EIG00001:      -3.1592692   -3.1592692   -3.1592692   -3.1573674   -3.1573674
:EIG00006:      -3.1573674   -2.6092520   -2.6092520   -2.6092520   -2.6012618
:EIG00011:      -2.6012618   -2.6012618    0.0702128    0.3403113    0.3403113
:EIG00016:       0.4127452    0.4127452    0.4127452    0.5386641    0.5386641
:EIG00021:       0.5386641    0.5742451    0.5742451    0.5742451    0.7150896
:EIG00026:       0.7150896    0.7283402    0.7283402    0.7773508    0.7773508
:EIG00031:       0.8113171    0.8113171    0.8113171    1.2586075    1.3237486
:EIG00036:       1.3237486    1.3237486    1.3308865    1.3308865    1.3308865
:EIG00041:       1.4580028    1.4580028    1.4580028    1.4995530
       ********************************************************

:KPT   :      NUMBER OF K-POINTS:    20
:LMAX-WF:   10   Non-Spherical LMAX:   4

          ATOMIC SPHERE DEPENDENT PARAMETERS FOR ATOM  Fe1       
:e__0001: OVERALL ENERGY PARAMETER IS    0.3000
          OVERALL BASIS SET ON ATOM IS LAPW
:E1_0001: E( 1)=    0.3000
             APW+lo
:E1_0001: E( 1)=   -2.9761   E(BOTTOM)=   -3.010   E(TOP)=   -2.942  1  2   199
             LOCAL ORBITAL
:E2_0001: E( 2)=    0.5413   E(BOTTOM)=    0.541   E(TOP)= -200.000  0 -1    95
             APW+lo
:E0_0001: E( 0)=    0.3000
             APW+lo

          ATOMIC SPHERE DEPENDENT PARAMETERS FOR ATOM  Fe2       
:e__0002: OVERALL ENERGY PARAMETER IS    0.3000
          OVERALL BASIS SET ON ATOM IS LAPW
:E1_0002: E( 1)=    0.3000
             APW+lo
:E1_0002: E( 1)=   -2.9761   E(BOTTOM)=   -3.010   E(TOP)=   -2.942  1  2   199
             LOCAL ORBITAL
:E2_0002: E( 2)=    0.5413   E(BOTTOM)=    0.541   E(TOP)= -200.000  0 -1    95
             APW+lo
:E0_0002: E( 0)=    0.3000
             APW+lo

          ATOMIC SPHERE DEPENDENT PARAMETERS FOR ATOM  Rh1       
:e__0003: OVERALL ENERGY PARAMETER IS    0.3000
          OVERALL BASIS SET ON ATOM IS LAPW
:E1_0003: E( 1)=    0.3000
             APW+lo
:E1_0003: E( 1)=   -2.5251   E(BOTTOM)=   -2.624   E(TOP)=   -2.426  2  3   176
             LOCAL ORBITAL
:E2_0003: E( 2)=    0.3000   E(BOTTOM)=    0.279   E(TOP)= -200.000  1 -1    88
             APW+lo
:E0_0003: E( 0)=    0.3000
             APW+lo

       K=   0.00000   0.00000   0.00000            1
:RKM  : MATRIX SIZE   185LOs:  48  RKM= 6.64  WEIGHT= 1.00  PGR:    
       EIGENVALUES ARE:
:EIG00001:      -2.9699321   -2.9699321   -2.9699321   -2.9679656   -2.9679656
:EIG00006:      -2.9679656   -2.5081439   -2.5081439   -2.5081439   -2.5001318
:EIG00011:      -2.5001318   -2.5001318    0.2185870    0.4810755    0.4810755
:EIG00016:       0.5433070    0.5433070    0.5433070    0.7099103    0.7099103
:EIG00021:       0.7099103    0.7183062    0.7183062    0.7183062    0.8769347
:EIG00026:       0.8769347    0.8912694    0.8912694    0.9143182    0.9143182
:EIG00031:       0.9685508    0.9685508    0.9685508    1.4095004    1.4799114
:EIG00036:       1.4799114    1.4799114    1.5019596    1.5019596    1.5019596
:EIG00041:       1.5990375    1.5990375    1.5990375    1.6298367
       ********************************************************

:KPT   :      NUMBER OF K-POINTS:    20
:GAP (global)   :    0.0    Ry =     0.0   eV (metal)
:GAP (this spin):    0.0    Ry =     0.0   eV (metal)
         Bandranges (emin - emax) and occupancy:
:BAN00024:  24    0.532017    0.641818  1.00000000
:BAN00025:  25    0.634909    0.715090  1.00000000
:BAN00026:  26    0.652223    0.722639  1.00000000
:BAN00027:  27    0.670668    0.728340  1.00000000
:BAN00028:  28    0.694236    0.728340  1.00000000
:BAN00029:  29    0.707959    0.777351  1.00000000
:BAN00030:  30    0.720214    0.777351  1.00000000
:BAN00031:  31    0.724050    0.811317  1.00000000
:BAN00032:  32    0.750780    0.811317  1.00000000
:BAN00033:  33    0.750780    0.826603  1.00000000
:BAN00034:  34    0.803050    1.258608  0.23872816
:BAN00035:  35    0.839977    1.323749  0.00000000
:BAN00036:  36    0.850055    1.323749  0.00000000
:BAN00037:  37    1.279930    1.400988  0.00000000
:BAN00038:  38    1.291644    1.552066  0.00000000
:BAN00039:  39    1.327320    1.796118  0.00000000
        Energy to separate low and high energystates:    0.02021


:NOE  : NUMBER OF ELECTRONS          =   58.000

:FER  : F E R M I - ENERGY(TETRAH.M.)=   0.8352878045
:GMA  : POTENTIAL AND CHARGE CUT-OFF  12.00 Ry**.5

:POS001: ATOM    1 X,Y,Z = 0.00000 0.00000 0.00000  MULT= 1  ZZ= 26.000  Fe1       

       LMMAX  5
       LM=   0 0  4 0  4 4  6 0  6 4

:CHA001: TOTAL VALENCE CHARGE INSIDE SPHERE   1 =   8.0158    (RMT=  2.4300 )
:PCS001: PARTIAL CHARGES SPHERE =  1 S,P,D,F,      D-EG,D-T2G 
:QTL001: 0.2562 3.2945 4.4216 0.0318 0.0000 0.0000 0.0000 1.8415 2.5801 0.0000 0.0000 0.0000
        Q-s-low E-s-low   Q-p-low E-p-low   Q-d-low E-d-low   Q-f-low E-f-low
:EPL001:  0.0006 -2.6147    2.9950 -3.1580    0.0014 -2.6103    0.0006 -2.6110
        Q-s-hi  E-s-hi    Q-p-hi  E-p-hi    Q-d-hi  E-d-hi    Q-f-hi  E-f-hi 
:EPH001:  0.2557  0.3425    0.2995  0.4988    4.4202  0.6370    0.0312  0.5915

:POS002: ATOM    2 X,Y,Z = 0.50000 0.00000 0.00000  MULT= 1  ZZ= 26.000  Fe2       

       LMMAX  5
       LM=   0 0  4 0  4 4  6 0  6 4

:CHA002: TOTAL VALENCE CHARGE INSIDE SPHERE   2 =   8.0158    (RMT=  2.4300 )
:PCS002: PARTIAL CHARGES SPHERE =  2 S,P,D,F,      D-EG,D-T2G 
:QTL002: 0.2562 3.2945 4.4216 0.0318 0.0000 0.0000 0.0000 1.8415 2.5801 0.0000 0.0000 0.0000
        Q-s-low E-s-low   Q-p-low E-p-low   Q-d-low E-d-low   Q-f-low E-f-low
:EPL002:  0.0006 -2.6147    2.9950 -3.1580    0.0014 -2.6103    0.0006 -2.6110
        Q-s-hi  E-s-hi    Q-p-hi  E-p-hi    Q-d-hi  E-d-hi    Q-f-hi  E-f-hi 
:EPH002:  0.2557  0.3425    0.2995  0.4988    4.4202  0.6370    0.0312  0.5915

:POS003: ATOM    3 X,Y,Z = 0.25000 0.25000 0.25000  MULT= 2  ZZ= 45.000  Rh1       

       LMMAX  6
       LM=   0 0  4 0  4 4  6 0  6 4 -3 2

:CHA003: TOTAL VALENCE CHARGE INSIDE SPHERE   3 =   7.2803    (RMT=  2.4300 )
:PCS003: PARTIAL CHARGES SPHERE =  3 S,P,D,F,      D-EG,D-T2G 
:QTL003: 0.1914 3.1910 3.8623 0.0276 0.0000 0.0000 0.0000 1.5520 2.3103 0.0000 0.0000 0.0000
        Q-s-low E-s-low   Q-p-low E-p-low   Q-d-low E-d-low   Q-f-low E-f-low
:EPL003:  0.0002 -3.0688    2.9783 -2.6059    0.0004 -3.0823    0.0002 -3.0795
        Q-s-hi  E-s-hi    Q-p-hi  E-p-hi    Q-d-hi  E-d-hi    Q-f-hi  E-f-hi 
:EPH003:  0.1913  0.3438    0.2127  0.5151    3.8619  0.5823    0.0274  0.6090

:CHA  : TOTAL VALENCE CHARGE INSIDE UNIT CELL =      33.238728

:SUM  : SUM OF EIGENVALUES =         -22.322336192



   QTL-B VALUE .EQ.    2.71234   in Band of energy    0.77735   ATOM=    3   L=  2
    Most likely no ghostbands, but adjust Energy-parameters for this ATOM and L


:WARN : QTL-B value eq.   2.71 in Band of energy   0.77735  ATOM=    3  L=  2
:WARN : You should change the E-parameter for this atom and L-value in case.in1 (or try the -in1new switch)
:GAP (global)   :    0.0    Ry =     0.0   eV (metal)
:GAP (this spin):    0.0    Ry =     0.0   eV (metal)
         Bandranges (emin - emax) and occupancy:
:BAN00017:  17    0.543307    0.627086  1.00000000
:BAN00018:  18    0.543307    0.638291  1.00000000
:BAN00019:  19    0.584580    0.709910  1.00000000
:BAN00020:  20    0.640680    0.714523  1.00000000
:BAN00021:  21    0.645989    0.714523  1.00000000
:BAN00022:  22    0.652243    0.757817  1.00000000
:BAN00023:  23    0.652243    0.796599  1.00000000
:BAN00024:  24    0.675849    0.817854  1.00000000
:BAN00025:  25    0.794905    0.876935  0.57692168
:BAN00026:  26    0.817063    0.884444  0.17992159
:BAN00027:  27    0.835942    0.891269  0.00442856
:BAN00028:  28    0.856512    0.891269  0.00000000
:BAN00029:  29    0.871955    0.917492  0.00000000
:BAN00030:  30    0.882204    0.920208  0.00000000
:BAN00031:  31    0.882827    0.968551  0.00000000
:BAN00032:  32    0.909789    0.968551  0.00000000
        Energy to separate low and high energystates:    0.16859


:NOE  : NUMBER OF ELECTRONS          =   58.000

:FER  : F E R M I - ENERGY(TETRAH.M.)=   0.8352878045
:GMA  : POTENTIAL AND CHARGE CUT-OFF  12.00 Ry**.5

:POS001: ATOM    1 X,Y,Z = 0.00000 0.00000 0.00000  MULT= 1  ZZ= 26.000  Fe1       

       LMMAX  5
       LM=   0 0  4 0  4 4  6 0  6 4

:CHA001: TOTAL VALENCE CHARGE INSIDE SPHERE   1 =   5.0890    (RMT=  2.4300 )
:PCS001: PARTIAL CHARGES SPHERE =  1 S,P,D,F,      D-EG,D-T2G 
:QTL001: 0.2345 3.2553 1.5684 0.0232 0.0000 0.0000 0.0000 0.5034 1.0651 0.0000 0.0000 0.0000
        Q-s-low E-s-low   Q-p-low E-p-low   Q-d-low E-d-low   Q-f-low E-f-low
:EPL001:  0.0005 -2.5132    2.9947 -2.9686    0.0013 -2.5089    0.0006 -2.5092
        Q-s-hi  E-s-hi    Q-p-hi  E-p-hi    Q-d-hi  E-d-hi    Q-f-hi  E-f-hi 
:EPH001:  0.2340  0.4545    0.2606  0.6085    1.5672  0.6731    0.0226  0.6641

:POS002: ATOM    2 X,Y,Z = 0.50000 0.00000 0.00000  MULT= 1  ZZ= 26.000  Fe2       

       LMMAX  5
       LM=   0 0  4 0  4 4  6 0  6 4

:CHA002: TOTAL VALENCE CHARGE INSIDE SPHERE   2 =   5.0890    (RMT=  2.4300 )
:PCS002: PARTIAL CHARGES SPHERE =  2 S,P,D,F,      D-EG,D-T2G 
:QTL002: 0.2345 3.2553 1.5684 0.0232 0.0000 0.0000 0.0000 0.5034 1.0651 0.0000 0.0000 0.0000
        Q-s-low E-s-low   Q-p-low E-p-low   Q-d-low E-d-low   Q-f-low E-f-low
:EPL002:  0.0005 -2.5132    2.9947 -2.9686    0.0013 -2.5089    0.0006 -2.5092
        Q-s-hi  E-s-hi    Q-p-hi  E-p-hi    Q-d-hi  E-d-hi    Q-f-hi  E-f-hi 
:EPH002:  0.2340  0.4545    0.2606  0.6085    1.5672  0.6731    0.0226  0.6641

:POS003: ATOM    3 X,Y,Z = 0.25000 0.25000 0.25000  MULT= 2  ZZ= 45.000  Rh1       

       LMMAX  6
       LM=   0 0  4 0  4 4  6 0  6 4 -3 2

:CHA003: TOTAL VALENCE CHARGE INSIDE SPHERE   3 =   6.1285    (RMT=  2.4300 )
:PCS003: PARTIAL CHARGES SPHERE =  3 S,P,D,F,      D-EG,D-T2G 
:QTL003: 0.1860 3.1651 2.7587 0.0154 0.0000 0.0000 0.0000 0.8964 1.8623 0.0000 0.0000 0.0000
        Q-s-low E-s-low   Q-p-low E-p-low   Q-d-low E-d-low   Q-f-low E-f-low
:EPL003:  0.0002 -2.9032    2.9791 -2.5047    0.0004 -2.9112    0.0002 -2.9070
        Q-s-hi  E-s-hi    Q-p-hi  E-p-hi    Q-d-hi  E-d-hi    Q-f-hi  E-f-hi 
:EPH003:  0.1858  0.4747    0.1860  0.6338    2.7583  0.6241    0.0152  0.6838

:CHA  : TOTAL VALENCE CHARGE INSIDE UNIT CELL =      24.761272

:SUM  : SUM OF EIGENVALUES =         -24.964036223



   QTL-B VALUE .EQ.    2.76289   in Band of energy    0.84193   ATOM=    1   L=  2
    Most likely no ghostbands, but adjust Energy-parameters for this ATOM and L


:WARN : QTL-B value eq.   2.76 in Band of energy   0.84193  ATOM=    1  L=  2
:WARN : You should change the E-parameter for this atom and L-value in case.in1 (or try the -in1new switch)

        1.ATOM      Fe1                   5 CORE STATES
:1S 001: 1S                -512.918296422 Ry
:2S 001: 2S                 -58.867098991 Ry
:2PP001: 2P*                -50.560163463 Ry
:2P 001: 2P                 -49.643551060 Ry
:3S 001: 3S                  -5.645944693 Ry

        2.ATOM      Fe2                   5 CORE STATES
:1S 002: 1S                -512.918296422 Ry
:2S 002: 2S                 -58.867098991 Ry
:2PP002: 2P*                -50.560163463 Ry
:2P 002: 2P                 -49.643551060 Ry
:3S 002: 3S                  -5.645944693 Ry

        3.ATOM      Rh1                  10 CORE STATES
:1S 003: 1S               -1691.217931711 Ry
:2S 003: 2S                -244.120073391 Ry
:2PP003: 2P*               -225.926914533 Ry
:2P 003: 2P                -215.298232992 Ry
:3S 003: 3S                 -42.657850310 Ry
:3PP003: 3P*                -35.540511067 Ry
:3P 003: 3P                 -33.712000604 Ry
:3DD003: 3D*                -21.116674177 Ry
:3D 003: 3D                 -20.756126950 Ry
:4S 003: 4S                  -4.950238540 Ry

        1.ATOM      Fe1                   5 CORE STATES
:1S 001: 1S                -512.917485201 Ry
:2S 001: 2S                 -58.785188684 Ry
:2PP001: 2P*                -50.499094941 Ry
:2P 001: 2P                 -49.580706911 Ry
:3S 001: 3S                  -5.453831662 Ry

        2.ATOM      Fe2                   5 CORE STATES
:1S 002: 1S                -512.917485201 Ry
:2S 002: 2S                 -58.785188684 Ry
:2PP002: 2P*                -50.499094941 Ry
:2P 002: 2P                 -49.580706911 Ry
:3S 002: 3S                  -5.453831662 Ry

        3.ATOM      Rh1                  10 CORE STATES
:1S 003: 1S               -1691.216784672 Ry
:2S 003: 2S                -244.099243378 Ry
:2PP003: 2P*               -225.911752519 Ry
:2P 003: 2P                -215.282016486 Ry
:3S 003: 3S                 -42.646082589 Ry
:3PP003: 3P*                -35.526934971 Ry
:3P 003: 3P                 -33.698849186 Ry
:3DD003: 3D*                -21.096779061 Ry
:3D 003: 3D                 -20.736291231 Ry
:4S 003: 4S                  -4.855803339 Ry
:CINT001 Core Integral Atom   1 Up    5.999606 Dn   5.999592 Total  11.999198
:CINT002 Core Integral Atom   2 Up    5.999606 Dn   5.999592 Total  11.999198
:CINT003 Core Integral Atom   3 Up   14.998594 Dn  14.998639 Total  29.997233

       DENSITY AT NUCLEUS
        JATOM        VALENCE       SEMI-CORE          CORE           TOTAL
:RTO001:   1        7.295333        0.000000    15301.555248    15308.850581
:RTO002:   2        7.295333        0.000000    15301.555248    15308.850581
:RTO003:   3       24.707665        0.000000   155310.158130   155334.865795

       HYPERFINE FIELDS FOR THOMSON RADIUS
:HFF001:          160.149           0.000        -305.113        -144.964 (KGAUSS)
:HFF002:          160.149           0.000        -305.113        -144.964 (KGAUSS)
:HFF003:           97.585           0.000        -464.654        -367.069 (KGAUSS)
     
       CHARGES OF NEW CHARGE DENSITY
:NTO   : INTERSTITIAL     UP =     2.646515 DN =     2.326153 TOT =     4.972668
:NPC   : PW Pseudocharge  UP =     6.383043 DN =     5.191108 TOT =    11.574151
:NTO001: CHARGE SPHERE  1 UP =    14.015376 DN =    11.088600 TOT =    25.103975
:NTO002: CHARGE SPHERE  2 UP =    14.015375 DN =    11.088600 TOT =    25.103975
:NTO003: CHARGE SPHERE  3 UP =    22.278912 DN =    21.127177 TOT =    43.406089

:NEC01: NUCLEAR AND ELECTRONIC CHARGE    142.00000   141.99280
     
       CHARGES OF OLD CHARGE DENSITY
:OTO   : INTERSTITIAL     UP =     2.697579 DN =     1.107042 TOT =     3.804621
:OPC   : PW Pseudocharge  UP =    12.529935 DN =     6.327856 TOT =    18.857791
:OTO001: CHARGE SPHERE  1 UP =    14.100211 DN =    11.156686 TOT =    25.256897
:OTO002: CHARGE SPHERE  2 UP =    14.100211 DN =    11.156686 TOT =    25.256897
:OTO003: CHARGE SPHERE  3 UP =    23.052245 DN =    20.790329 TOT =    43.842573

:NEC02: NUCLEAR AND ELECTRONIC CHARGE    142.00000   142.00356
     
       CONVERGENCE TEST
:DTO001: DIFFERENCE SPHERE  1 UP =  0.0703924 DN =  0.6006128 TOT =  0.6710052
:DTO002: DIFFERENCE SPHERE  2 UP =  0.0703924 DN =  0.6006129 TOT =  0.6710053
:DTO003: DIFFERENCE SPHERE  3 UP =  0.5649445 DN =  0.2400030 TOT =  0.8049475

:DIS  :  CHARGE DISTANCE       ( 0.6006129 for atom    2 spin 2)      1.4759527
 PW Mixed is           49
 
******************************************************
* MULTISECANT MIXING VER9 RELEASE 10.4.0              *
* Standard Mode with controls                        *
* Fixed density scale                                *
* Regularization       1.000E-04                     *
* Trust Upper Limit    5.000E+00                     *
* Max Number of Memory Steps    8                    *
******************************************************
 
:PWTMP   1.1765E+02  4.5917E+02  3.5807E+02
:PLANE:  PW TOTAL      4.4201 DISTAN   2.86E+00  6.46E+01 %
:CHARG:  CLM/ATOM    212.0506 DISTAN   4.29E-01  2.02E-01 %
INFO: Reducing dbase  2.50000E-02 1.47595E+00 2.05780E-02
 
Step History
        DMIX         DMIXT        Red     Pred      Trust     Lambda    MagRel    MagAbs     Beta
  1   3.5000E-02   3.5000E-02 -1.00E+00  1.00E+00 -1.00E+01  1.00E+00  3.50E-02  3.50E-02  1.00E+00
:INFO :  Note, Pratt in use
INFO: Reducing dbase  2.05780E-02 1.47595E+00 1.69382E-02
:TRUST:  Step 3.07E-02  Charge 7.50E-02 (e) CTO  2.50E-01 (e) PW  3.50E-01 (e)
:DIRM :  MEMORY  0/ 8 SCALE   1.000
Performing Pseudo Compensation
Final Pseudo Compensation Rescaling     9.99105E-01
Final Pseudo Compensation Rescaling     9.96420E-01
:MIX  :   PRATT  REGULARIZATION:  1.00E-04 GREED: 0.02045                  
     
       CHARGES OF MIXED CHARGE DENSITY
:CTO   : INTERSTITIAL     UP =     2.694140 DN =     1.131024 TOT =     3.825164
:CPC   : PW Pseudocharge  UP =     8.734483 DN =     4.896536 TOT =    13.631019
:CTO001: CHARGE SPHERE  1 UP =    14.098476 DN =    11.155293 TOT =    25.253770
:CTO002: CHARGE SPHERE  2 UP =    14.098476 DN =    11.155293 TOT =    25.253770
:CTO003: CHARGE SPHERE  3 UP =    23.036432 DN =    20.797217 TOT =    43.833648

       SPIN MAGNETIC MOMENTS OF MIXED CHARGE DENSITY
:MMINT:  MAGNETIC MOMENT IN INTERSTITIAL  =    1.56312
:MMI001: MAGNETIC MOMENT IN SPHERE   1    =    2.94318
:MMI002: MAGNETIC MOMENT IN SPHERE   2    =    2.94318
:MMI003: MAGNETIC MOMENT IN SPHERE   3    =    2.23922
:MMTOT:  SPIN MAGNETIC MOMENT IN CELL     =   11.92791

:NEC03: NUCLEAR AND ELECTRONIC CHARGE    142.00000   142.00000

PW CHANGE     H    K    L      Current       Change    Residue
:PUP001:      0    0    0  3.19172544E-02 -1.057E-02 -1.723E-02
:PUP003:      0    0   -2 -1.61521034E-02  1.272E-02  2.313E-02
:PUP004:      0   -2   -2  1.90762575E-02 -6.857E-02 -8.828E-02
:PUP006:     -2   -2   -2  7.35817667E-04  9.225E-03  1.069E-02
:PUP007:      0    0   -4 -7.39942200E-03 -1.734E-02 -1.703E-02
:PUP009:      0   -2   -4  1.04101149E-02  1.344E-02  8.607E-03
:PUP010:     -2   -2   -4 -2.55216899E-02 -3.157E-02 -1.876E-02
:PUP013:      0   -4   -4 -6.69389747E-03 -5.924E-03 -6.066E-04
:PUP015:     -2   -4   -4  3.34609127E-03  1.073E-03 -1.653E-03
:PUP016:      0    0   -6  8.38193413E-04  2.699E-04 -3.315E-04
:PUP017:      0   -2   -6 -4.61497561E-03 -2.531E-03  2.808E-03
:PUP019:     -2   -2   -6  7.63111860E-04 -7.483E-04 -1.465E-03
  
:PDN001:      0    0    0  1.68334506E-02 -3.911E-03  2.799E-04
:PDN003:      0    0   -2 -9.92209219E-03  8.909E-03  1.180E-02
:PDN004:      0   -2   -2  1.67844935E-02 -3.138E-02 -5.042E-02
:PDN006:     -2   -2   -2  6.87069647E-04  5.554E-03  6.958E-03
:PDN007:      0    0   -4 -4.50571569E-03 -8.925E-03 -1.014E-02
:PDN009:      0   -2   -4  8.92625385E-03  6.336E-03  4.186E-03
:PDN010:     -2   -2   -4 -1.87579987E-02 -1.720E-02 -5.437E-03
:PDN013:      0   -4   -4 -5.30726334E-03 -3.082E-03  1.707E-03
:PDN015:     -2   -4   -4  3.12803094E-03 -8.847E-04 -3.819E-03
:PDN016:      0    0   -6  7.91460771E-04 -2.117E-04 -4.926E-04
:PDN017:      0   -2   -6 -3.69425291E-03 -4.738E-04  2.397E-03
:PDN019:     -2   -2   -6  8.16990071E-04 -1.452E-03 -2.200E-03

:ENE  : *WARNING** TOTAL ENERGY IN Ry =       -24232.19612965

 Flat Integration
 New Mode for Coulomb Integral
 Consistent 3/8+Simpson combinations
 Extension of core to zero
 LDM version in phi
 Fifth-order quadrature in outwin


            ---------
:ITE002:  2. ITERATION
            ---------

:NATO :    3 INDEPENDENT AND    4 TOTAL ATOMS IN UNITCELL
       SUBSTANCE: FeRh                                                        

       LATTICE                      = F   
:POT  : POTENTIAL OPTION EX_PBE EC_PBE VX_PBE VC_PBE
:LAT  : LATTICE CONSTANTS= 11.27222 11.27222 11.27222    1.571    1.571    1.571
:VOL  : UNIT CELL VOLUME =     358.07036
       MODE OF CALCULATION IS       = RELA
       SPINPOLARIZED CALCULATION
:IFFT  : FFT-parameters:   90   90   90 Factor: 2.00


   CONVERGENCE PARAMETER FOR PSEUDOCHARGE: NCON=  9
   MAXIMAL VALUE OF RMT(JATOM)*ABSK(NKK) : RK  =29.05063


:VKCOUL :  VK-COUL convergence: 0.474E-07
       ATOMNUMBER=  1 Fe1        VCOUL-ZERO =  0.62928E+00
       ATOMNUMBER=  2 Fe2        VCOUL-ZERO =  0.62928E+00
       ATOMNUMBER=  3 Rh1        VCOUL-ZERO =  0.60025E+00
:FIT001: LUSE= 13 SIGMA OF V-XC FIT FOR ATOM  1  0.7074427E-02
:FIT001: LUSE= 13 SIGMA OF V-XC FIT FOR ATOM  1  0.1868280E-02
:FIT002: LUSE= 13 SIGMA OF V-XC FIT FOR ATOM  2  0.7074427E-02
:FIT002: LUSE= 13 SIGMA OF V-XC FIT FOR ATOM  2  0.1868280E-02
:FIT003: LUSE= 13 SIGMA OF V-XC FIT FOR ATOM  3  0.1434470E-02
:FIT003: LUSE= 13 SIGMA OF V-XC FIT FOR ATOM  3  0.3310196E-03
:DEN  : DENSITY INTEGRAL  =         -9883.61727507   (Ry)
       ELS_POTENTIAL_AT Z=0 and Z=0.5:  -0.21243  -0.21243
       ELS_POTENTIAL_AT Y=0 and Y=0.5:   0.00000   0.00000
:VZERO:v0,v0c,v0x  -0.88621  -0.21243  -0.67378 v5,v5c,v5x  -0.88621  -0.21243  -0.67378
:VZERY:v0,v0c,v0x  -0.86840   0.00000  -0.86840 v5,v5c,v5x  -0.86840   0.00000  -0.86840
:VZERX:v0,v0c,v0x  -0.86840   0.00000  -0.86840 v5,v5c,v5x  -0.86840   0.00000  -0.86840
:LMAX-WF:   10   Non-Spherical LMAX:   4

          ATOMIC SPHERE DEPENDENT PARAMETERS FOR ATOM  Fe1       
:e__0001: OVERALL ENERGY PARAMETER IS    0.5000
          OVERALL BASIS SET ON ATOM IS LAPW
:E1_0001: E( 1)=    0.5000
             APW+lo
:E1_0001: E( 1)=   -3.2052   E(BOTTOM)=   -3.238   E(TOP)=   -3.172  1  2   173
             LOCAL ORBITAL
:E2_0001: E( 2)=    0.5770   E(BOTTOM)=    0.334   E(TOP)=    0.820  0  1   129
             APW+lo
:E0_0001: E( 0)=    0.5000
             APW+lo

          ATOMIC SPHERE DEPENDENT PARAMETERS FOR ATOM  Fe2       
:e__0002: OVERALL ENERGY PARAMETER IS    0.5000
          OVERALL BASIS SET ON ATOM IS LAPW
:E1_0002: E( 1)=    0.5000
             APW+lo
:E1_0002: E( 1)=   -3.2052   E(BOTTOM)=   -3.238   E(TOP)=   -3.172  1  2   175
             LOCAL ORBITAL
:E2_0002: E( 2)=    0.5770   E(BOTTOM)=    0.334   E(TOP)=    0.820  0  1   129
             APW+lo
:E0_0002: E( 0)=    0.5000
             APW+lo

          ATOMIC SPHERE DEPENDENT PARAMETERS FOR ATOM  Rh1       
:e__0003: OVERALL ENERGY PARAMETER IS    0.5000
          OVERALL BASIS SET ON ATOM IS LAPW
:E1_0003: E( 1)=    0.5000
             APW+lo
:E1_0003: E( 1)=   -2.6651   E(BOTTOM)=   -2.765   E(TOP)=   -2.565  2  3   162
             LOCAL ORBITAL
:E2_0003: E( 2)=    0.5000   E(BOTTOM)=    0.128   E(TOP)= -200.000  1 -1    93
             APW+lo
:E0_0003: E( 0)=    0.5000
             APW+lo

       K=   0.00000   0.00000   0.00000            1
:RKM  : MATRIX SIZE   185LOs:  48  RKM= 6.64  WEIGHT= 1.00  PGR:    
       EIGENVALUES ARE:
:EIG00001:      -3.1991870   -3.1991870   -3.1991870   -3.1973511   -3.1973511
:EIG00006:      -3.1973511   -2.6480040   -2.6480040   -2.6480040   -2.6400620
:EIG00011:      -2.6400620   -2.6400620    0.0374886    0.3053235    0.3053235
:EIG00016:       0.3780353    0.3780353    0.3780353    0.5023045    0.5023045
:EIG00021:       0.5023045    0.5374403    0.5374403    0.5374403    0.6771112
:EIG00026:       0.6771112    0.6896152    0.6896152    0.7394638    0.7394638
:EIG00031:       0.7728039    0.7728039    0.7728039    1.2249182    1.2886756
:EIG00036:       1.2886756    1.2886756    1.2973533    1.2973533    1.2973533
:EIG00041:       1.4137232    1.4137232    1.4137232    1.4657736    1.9624967
:EIG00046:       1.9624967    2.0429289    2.1181630    2.1181630    2.1181630
 
       ********************************************************

:KPT   :      NUMBER OF K-POINTS:    20
:LMAX-WF:   10   Non-Spherical LMAX:   4

          ATOMIC SPHERE DEPENDENT PARAMETERS FOR ATOM  Fe1       
:e__0001: OVERALL ENERGY PARAMETER IS    0.5000
          OVERALL BASIS SET ON ATOM IS LAPW
:E1_0001: E( 1)=    0.5000
             APW+lo
:E1_0001: E( 1)=   -3.0153   E(BOTTOM)=   -3.049   E(TOP)=   -2.981  1  2   196
             LOCAL ORBITAL
:E2_0001: E( 2)=    0.5055   E(BOTTOM)=    0.506   E(TOP)= -200.000  0 -1    72
             APW+lo
:E0_0001: E( 0)=    0.5000
             APW+lo

          ATOMIC SPHERE DEPENDENT PARAMETERS FOR ATOM  Fe2       
:e__0002: OVERALL ENERGY PARAMETER IS    0.5000
          OVERALL BASIS SET ON ATOM IS LAPW
:E1_0002: E( 1)=    0.5000
             APW+lo
:E1_0002: E( 1)=   -3.0153   E(BOTTOM)=   -3.049   E(TOP)=   -2.981  1  2   197
             LOCAL ORBITAL
:E2_0002: E( 2)=    0.5055   E(BOTTOM)=    0.506   E(TOP)= -200.000  0 -1    72
             APW+lo
:E0_0002: E( 0)=    0.5000
             APW+lo

          ATOMIC SPHERE DEPENDENT PARAMETERS FOR ATOM  Rh1       
:e__0003: OVERALL ENERGY PARAMETER IS    0.5000
          OVERALL BASIS SET ON ATOM IS LAPW
:E1_0003: E( 1)=    0.5000
             APW+lo
:E1_0003: E( 1)=   -2.5646   E(BOTTOM)=   -2.663   E(TOP)=   -2.466  2  3   177
             LOCAL ORBITAL
:E2_0003: E( 2)=    0.5000   E(BOTTOM)=    0.243   E(TOP)= -200.000  1 -1    89
             APW+lo
:E0_0003: E( 0)=    0.5000
             APW+lo

       K=   0.00000   0.00000   0.00000            1
:RKM  : MATRIX SIZE   185LOs:  48  RKM= 6.64  WEIGHT= 1.00  PGR:    
       EIGENVALUES ARE:
:EIG00001:      -3.0090348   -3.0090348   -3.0090348   -3.0071458   -3.0071458
:EIG00006:      -3.0071458   -2.5475466   -2.5475466   -2.5475466   -2.5396208
:EIG00011:      -2.5396208   -2.5396208    0.1925432    0.4488692    0.4488692
:EIG00016:       0.5115091    0.5115091    0.5115091    0.6765130    0.6765130
:EIG00021:       0.6765130    0.6821336    0.6821336    0.6821336    0.8396852
:EIG00026:       0.8396852    0.8521077    0.8521077    0.8769410    0.8769410
:EIG00031:       0.9293587    0.9293587    0.9293587    1.3799073    1.4526944
:EIG00036:       1.4526944    1.4526944    1.4705578    1.4705578    1.4705578
:EIG00041:       1.5572962    1.5572962    1.5572962    1.5993193    2.1762715
:EIG00046:       2.1762715    2.1840193
 
       ********************************************************

:KPT   :      NUMBER OF K-POINTS:    20
:GAP (global)   :    0.0    Ry =     0.0   eV (metal)
:GAP (this spin):    0.0    Ry =     0.0   eV (metal)
         Bandranges (emin - emax) and occupancy:
:BAN00024:  24    0.496085    0.604389  1.00000000
:BAN00025:  25    0.597702    0.677111  1.00000000
:BAN00026:  26    0.614776    0.684584  1.00000000
:BAN00027:  27    0.633336    0.689615  1.00000000
:BAN00028:  28    0.656580    0.689615  1.00000000
:BAN00029:  29    0.670205    0.739464  1.00000000
:BAN00030:  30    0.682560    0.739464  1.00000000
:BAN00031:  31    0.685360    0.772804  1.00000000
:BAN00032:  32    0.712942    0.772804  1.00000000
:BAN00033:  33    0.712942    0.787905  1.00000000
:BAN00034:  34    0.765361    1.224918  0.25516205
:BAN00035:  35    0.803697    1.288676  0.00000000
:BAN00036:  36    0.812655    1.288676  0.00000000
:BAN00037:  37    1.243818    1.361989  0.00000000
:BAN00038:  38    1.253581    1.513812  0.00000000
:BAN00039:  39    1.292862    1.762037  0.00000000
        Energy to separate low and high energystates:   -0.01251


:NOE  : NUMBER OF ELECTRONS          =   58.000

:FER  : F E R M I - ENERGY(TETRAH.M.)=   0.7987465734
:GMA  : POTENTIAL AND CHARGE CUT-OFF  12.00 Ry**.5

:POS001: ATOM    1 X,Y,Z = 0.00000 0.00000 0.00000  MULT= 1  ZZ= 26.000  Fe1       

       LMMAX  5
       LM=   0 0  4 0  4 4  6 0  6 4

:CHA001: TOTAL VALENCE CHARGE INSIDE SPHERE   1 =   8.0227    (RMT=  2.4300 )
:PCS001: PARTIAL CHARGES SPHERE =  1 S,P,D,F,      D-EG,D-T2G 
:QTL001: 0.2558 3.2928 4.4309 0.0315 0.0000 0.0000 0.0000 1.8426 2.5883 0.0000 0.0000 0.0000
        Q-s-low E-s-low   Q-p-low E-p-low   Q-d-low E-d-low   Q-f-low E-f-low
:EPL001:  0.0006 -2.6535    2.9951 -3.1980    0.0014 -2.6491    0.0006 -2.6496
        Q-s-hi  E-s-hi    Q-p-hi  E-p-hi    Q-d-hi  E-d-hi    Q-f-hi  E-f-hi 
:EPH001:  0.2553  0.3089    0.2977  0.4642    4.4296  0.5993    0.0310  0.5553

:POS002: ATOM    2 X,Y,Z = 0.50000 0.00000 0.00000  MULT= 1  ZZ= 26.000  Fe2       

       LMMAX  5
       LM=   0 0  4 0  4 4  6 0  6 4

:CHA002: TOTAL VALENCE CHARGE INSIDE SPHERE   2 =   8.0227    (RMT=  2.4300 )
:PCS002: PARTIAL CHARGES SPHERE =  2 S,P,D,F,      D-EG,D-T2G 
:QTL002: 0.2558 3.2928 4.4309 0.0315 0.0000 0.0000 0.0000 1.8426 2.5883 0.0000 0.0000 0.0000
        Q-s-low E-s-low   Q-p-low E-p-low   Q-d-low E-d-low   Q-f-low E-f-low
:EPL002:  0.0006 -2.6535    2.9951 -3.1980    0.0014 -2.6491    0.0006 -2.6496
        Q-s-hi  E-s-hi    Q-p-hi  E-p-hi    Q-d-hi  E-d-hi    Q-f-hi  E-f-hi 
:EPH002:  0.2553  0.3089    0.2977  0.4642    4.4296  0.5993    0.0310  0.5553

:POS003: ATOM    3 X,Y,Z = 0.25000 0.25000 0.25000  MULT= 2  ZZ= 45.000  Rh1       

       LMMAX  6
       LM=   0 0  4 0  4 4  6 0  6 4 -3 2

:CHA003: TOTAL VALENCE CHARGE INSIDE SPHERE   3 =   7.2891    (RMT=  2.4300 )
:PCS003: PARTIAL CHARGES SPHERE =  3 S,P,D,F,      D-EG,D-T2G 
:QTL003: 0.1908 3.1896 3.8734 0.0273 0.0000 0.0000 0.0000 1.5555 2.3179 0.0000 0.0000 0.0000
        Q-s-low E-s-low   Q-p-low E-p-low   Q-d-low E-d-low   Q-f-low E-f-low
:EPL003:  0.0002 -3.1089    2.9784 -2.6446    0.0004 -3.1224    0.0002 -3.1203
        Q-s-hi  E-s-hi    Q-p-hi  E-p-hi    Q-d-hi  E-d-hi    Q-f-hi  E-f-hi 
:EPH003:  0.1907  0.3099    0.2111  0.4803    3.8730  0.5465    0.0271  0.5719

:CHA  : TOTAL VALENCE CHARGE INSIDE UNIT CELL =      33.255162

:SUM  : SUM OF EIGENVALUES =         -23.554316170

:GAP (global)   :    0.0    Ry =     0.0   eV (metal)
:GAP (this spin):    0.0    Ry =     0.0   eV (metal)
         Bandranges (emin - emax) and occupancy:
:BAN00017:  17    0.511509    0.594067  1.00000000
:BAN00018:  18    0.511509    0.603514  1.00000000
:BAN00019:  19    0.551298    0.676513  1.00000000
:BAN00020:  20    0.606365    0.678526  1.00000000
:BAN00021:  21    0.612010    0.678526  1.00000000
:BAN00022:  22    0.617524    0.721764  1.00000000
:BAN00023:  23    0.617524    0.759347  1.00000000
:BAN00024:  24    0.641723    0.781925  1.00000000
:BAN00025:  25    0.759481    0.839685  0.57190660
:BAN00026:  26    0.782812    0.846043  0.17197774
:BAN00027:  27    0.799568    0.852108  0.00095361
:BAN00028:  28    0.819791    0.852108  0.00000000
:BAN00029:  29    0.834585    0.880564  0.00000000
:BAN00030:  30    0.843201    0.881880  0.00000000
:BAN00031:  31    0.845715    0.929359  0.00000000
:BAN00032:  32    0.872456    0.929359  0.00000000
        Energy to separate low and high energystates:    0.14254


:NOE  : NUMBER OF ELECTRONS          =   58.000

:FER  : F E R M I - ENERGY(TETRAH.M.)=   0.7987465734
:GMA  : POTENTIAL AND CHARGE CUT-OFF  12.00 Ry**.5

:POS001: ATOM    1 X,Y,Z = 0.00000 0.00000 0.00000  MULT= 1  ZZ= 26.000  Fe1       

       LMMAX  5
       LM=   0 0  4 0  4 4  6 0  6 4

:CHA001: TOTAL VALENCE CHARGE INSIDE SPHERE   1 =   5.0808    (RMT=  2.4300 )
:PCS001: PARTIAL CHARGES SPHERE =  1 S,P,D,F,      D-EG,D-T2G 
:QTL001: 0.2333 3.2496 1.5677 0.0227 0.0000 0.0000 0.0000 0.5056 1.0621 0.0000 0.0000 0.0000
        Q-s-low E-s-low   Q-p-low E-p-low   Q-d-low E-d-low   Q-f-low E-f-low
:EPL001:  0.0005 -2.5525    2.9948 -3.0078    0.0013 -2.5483    0.0006 -2.5486
        Q-s-hi  E-s-hi    Q-p-hi  E-p-hi    Q-d-hi  E-d-hi    Q-f-hi  E-f-hi 
:EPH001:  0.2327  0.4264    0.2548  0.5767    1.5664  0.6389    0.0222  0.6296

:POS002: ATOM    2 X,Y,Z = 0.50000 0.00000 0.00000  MULT= 1  ZZ= 26.000  Fe2       

       LMMAX  5
       LM=   0 0  4 0  4 4  6 0  6 4

:CHA002: TOTAL VALENCE CHARGE INSIDE SPHERE   2 =   5.0808    (RMT=  2.4300 )
:PCS002: PARTIAL CHARGES SPHERE =  2 S,P,D,F,      D-EG,D-T2G 
:QTL002: 0.2333 3.2496 1.5677 0.0227 0.0000 0.0000 0.0000 0.5056 1.0621 0.0000 0.0000 0.0000
        Q-s-low E-s-low   Q-p-low E-p-low   Q-d-low E-d-low   Q-f-low E-f-low
:EPL002:  0.0005 -2.5525    2.9948 -3.0078    0.0013 -2.5483    0.0006 -2.5486
        Q-s-hi  E-s-hi    Q-p-hi  E-p-hi    Q-d-hi  E-d-hi    Q-f-hi  E-f-hi 
:EPH002:  0.2327  0.4264    0.2548  0.5767    1.5664  0.6389    0.0222  0.6296

:POS003: ATOM    3 X,Y,Z = 0.25000 0.25000 0.25000  MULT= 2  ZZ= 45.000  Rh1       

       LMMAX  6
       LM=   0 0  4 0  4 4  6 0  6 4 -3 2

:CHA003: TOTAL VALENCE CHARGE INSIDE SPHERE   3 =   6.1472    (RMT=  2.4300 )
:PCS003: PARTIAL CHARGES SPHERE =  3 S,P,D,F,      D-EG,D-T2G 
:QTL003: 0.1854 3.1612 2.7823 0.0149 0.0000 0.0000 0.0000 0.9092 1.8731 0.0000 0.0000 0.0000
        Q-s-low E-s-low   Q-p-low E-p-low   Q-d-low E-d-low   Q-f-low E-f-low
:EPL003:  0.0002 -2.9428    2.9793 -2.5441    0.0004 -2.9507    0.0002 -2.9468
        Q-s-hi  E-s-hi    Q-p-hi  E-p-hi    Q-d-hi  E-d-hi    Q-f-hi  E-f-hi 
:EPH003:  0.1853  0.4462    0.1818  0.6021    2.7819  0.5904    0.0147  0.6494

:CHA  : TOTAL VALENCE CHARGE INSIDE UNIT CELL =      24.744838

:SUM  : SUM OF EIGENVALUES =         -25.864444313



   QTL-B VALUE .EQ.    2.77683   in Band of energy    0.80534   ATOM=    2   L=  2
    Most likely no ghostbands, but adjust Energy-parameters for this ATOM and L


:WARN : QTL-B value eq.   2.78 in Band of energy   0.80534  ATOM=    2  L=  2
:WARN : You should change the E-parameter for this atom and L-value in case.in1 (or try the -in1new switch)

        1.ATOM      Fe1                   5 CORE STATES
:1S 001: 1S                -512.965338967 Ry
:2S 001: 2S                 -58.913713799 Ry
:2PP001: 2P*                -50.606908033 Ry
:2P 001: 2P                 -49.690281826 Ry
:3S 001: 3S                  -5.686467323 Ry

        2.ATOM      Fe2                   5 CORE STATES
:1S 002: 1S                -512.965338973 Ry
:2S 002: 2S                 -58.913713804 Ry
:2PP002: 2P*                -50.606908038 Ry
:2P 002: 2P                 -49.690281831 Ry
:3S 002: 3S                  -5.686467326 Ry

        3.ATOM      Rh1                  10 CORE STATES
:1S 003: 1S               -1691.265916186 Ry
:2S 003: 2S                -244.167426221 Ry
:2PP003: 2P*               -225.974450928 Ry
:2P 003: 2P                -215.345729171 Ry
:3S 003: 3S                 -42.702735753 Ry
:3PP003: 3P*                -35.585458555 Ry
:3P 003: 3P                 -33.756858764 Ry
:3DD003: 3D*                -21.161780766 Ry
:3D 003: 3D                 -20.801202091 Ry
:4S 003: 4S                  -4.989931725 Ry

        1.ATOM      Fe1                   5 CORE STATES
:1S 001: 1S                -512.964549506 Ry
:2S 001: 2S                 -58.831446636 Ry
:2PP001: 2P*                -50.545577446 Ry
:2P 001: 2P                 -49.627167513 Ry
:3S 001: 3S                  -5.493552470 Ry

        2.ATOM      Fe2                   5 CORE STATES
:1S 002: 1S                -512.964549512 Ry
:2S 002: 2S                 -58.831446641 Ry
:2PP002: 2P*                -50.545577452 Ry
:2P 002: 2P                 -49.627167518 Ry
:3S 002: 3S                  -5.493552474 Ry

        3.ATOM      Rh1                  10 CORE STATES
:1S 003: 1S               -1691.264796746 Ry
:2S 003: 2S                -244.146743141 Ry
:2PP003: 2P*               -225.959399611 Ry
:2P 003: 2P                -215.329629992 Ry
:3S 003: 3S                 -42.691072466 Ry
:3PP003: 3P*                -35.571998680 Ry
:3P 003: 3P                 -33.743821561 Ry
:3DD003: 3D*                -21.142041344 Ry
:3D 003: 3D                 -20.781522009 Ry
:4S 003: 4S                  -4.896186866 Ry
:CINT001 Core Integral Atom   1 Up    5.999609 Dn   5.999594 Total  11.999203
:CINT002 Core Integral Atom   2 Up    5.999609 Dn   5.999594 Total  11.999203
:CINT003 Core Integral Atom   3 Up   14.998603 Dn  14.998646 Total  29.997249

       DENSITY AT NUCLEUS
        JATOM        VALENCE       SEMI-CORE          CORE           TOTAL
:RTO001:   1        7.265575        0.000000    15301.697832    15308.963407
:RTO002:   2        7.265575        0.000000    15301.697832    15308.963407
:RTO003:   3       24.618918        0.000000   155310.641130   155335.260048

       HYPERFINE FIELDS FOR THOMSON RADIUS
:HFF001:          158.684           0.000        -306.057        -147.373 (KGAUSS)
:HFF002:          158.684           0.000        -306.057        -147.373 (KGAUSS)
:HFF003:           84.171           0.000        -461.151        -376.980 (KGAUSS)
     
       CHARGES OF NEW CHARGE DENSITY
:NTO   : INTERSTITIAL     UP =     2.631566 DN =     2.288924 TOT =     4.920490
:NPC   : PW Pseudocharge  UP =     6.352084 DN =     5.165090 TOT =    11.517175
:NTO001: CHARGE SPHERE  1 UP =    14.022323 DN =    11.080368 TOT =    25.102691
:NTO002: CHARGE SPHERE  2 UP =    14.022323 DN =    11.080368 TOT =    25.102691
:NTO003: CHARGE SPHERE  3 UP =    22.287668 DN =    21.145815 TOT =    43.433483

:NEC01: NUCLEAR AND ELECTRONIC CHARGE    142.00000   141.99284
     
       CHARGES OF OLD CHARGE DENSITY
:OTO   : INTERSTITIAL     UP =     2.694140 DN =     1.131024 TOT =     3.825164
:OPC   : PW Pseudocharge  UP =     8.734483 DN =     4.896536 TOT =    13.631019
:OTO001: CHARGE SPHERE  1 UP =    14.098476 DN =    11.155293 TOT =    25.253770
:OTO002: CHARGE SPHERE  2 UP =    14.098476 DN =    11.155293 TOT =    25.253770
:OTO003: CHARGE SPHERE  3 UP =    23.036432 DN =    20.797217 TOT =    43.833648

:NEC02: NUCLEAR AND ELECTRONIC CHARGE    142.00000   142.00000
     
       CONVERGENCE TEST
:DTO001: DIFFERENCE SPHERE  1 UP =  0.0557678 DN =  0.5780885 TOT =  0.6338563
:DTO002: DIFFERENCE SPHERE  2 UP =  0.0557678 DN =  0.5780885 TOT =  0.6338564
:DTO003: DIFFERENCE SPHERE  3 UP =  0.5243927 DN =  0.2157230 TOT =  0.7401157

:DIS  :  CHARGE DISTANCE       ( 0.5780885 for atom    2 spin 2)      1.3739720
 PW Mixed is           49
 
******************************************************
* MULTISECANT MIXING VER9 RELEASE 10.4.0              *
* Slow Mode, cautious                                *
* Fixed density scale                                *
* Regularization       1.000E-04                     *
* Step Trust Radius    0.75000                       *
* Trust Upper Limit    2.000E+00                     *
* Max Number of Memory Steps   12                    *
******************************************************
 
:PWTMP   1.1765E+02  4.5917E+02  3.5807E+02
:PLANE:  PW TOTAL      2.9661 DISTAN   9.84E-01  3.32E+01 %
:CHARG:  CLM/ATOM    212.0495 DISTAN   4.05E-01  1.91E-01 %
INFO: Reducing dbase  1.00000E-02 1.37397E+00 8.53122E-03
 
Step History
        DMIX         DMIXT        Red     Pred      Trust     Lambda    MagRel    MagAbs     Beta
  1   3.5000E-02   3.5000E-02 -1.00E+00  1.00E+00 -1.00E+01  1.00E+00  3.50E-02  3.50E-02  1.00E+00
  2   2.0448E-02   2.0448E-02 -1.00E+00  1.00E+00 -1.00E+01  1.00E+00  2.04E-02  3.93E-02  1.00E+00
:JACOBIANS    4.954E-01   4.685E-04
  
:TRUST:  Step 2.80E-02  Charge 7.50E-02 (e) CTO  2.50E-01 (e) PW  3.50E-01 (e)
:DIRM :  MEMORY  1/12 SCALE   1.000
:MIX  :   PRATT  REGULARIZATION:  1.00E-04 GREED: 0.02799  Expand 1.37  0.0280                
     
       CHARGES OF MIXED CHARGE DENSITY
:CTO   : INTERSTITIAL     UP =     2.693829 DN =     1.139537 TOT =     3.833366
:CPC   : PW Pseudocharge  UP =     7.447038 DN =     4.411532 TOT =    11.858569
:CTO001: CHARGE SPHERE  1 UP =    14.097886 DN =    11.154820 TOT =    25.252706
:CTO002: CHARGE SPHERE  2 UP =    14.097886 DN =    11.154820 TOT =    25.252706
:CTO003: CHARGE SPHERE  3 UP =    23.031051 DN =    20.799560 TOT =    43.830611

       SPIN MAGNETIC MOMENTS OF MIXED CHARGE DENSITY
:MMINT:  MAGNETIC MOMENT IN INTERSTITIAL  =    1.55429
:MMI001: MAGNETIC MOMENT IN SPHERE   1    =    2.94307
:MMI002: MAGNETIC MOMENT IN SPHERE   2    =    2.94307
:MMI003: MAGNETIC MOMENT IN SPHERE   3    =    2.23149
:MMTOT:  SPIN MAGNETIC MOMENT IN CELL     =   11.90341

:NEC03: NUCLEAR AND ELECTRONIC CHARGE    142.00000   142.00000

PW CHANGE     H    K    L      Current       Change    Residue
:PUP001:      0    0    0  2.83208762E-02 -3.596E-03 -6.792E-03
:PUP003:      0    0   -2 -1.18241563E-02  4.328E-03  1.040E-02
:PUP004:      0   -2   -2 -4.25399371E-03 -2.333E-02 -1.970E-02
:PUP006:     -2   -2   -2  3.87474036E-03  3.139E-03  1.417E-03
:PUP007:      0    0   -4 -1.33004670E-02 -5.901E-03  3.263E-04
:PUP009:      0   -2   -4  1.49820922E-02  4.572E-03 -4.847E-03
:PUP010:     -2   -2   -4 -3.62625966E-02 -1.074E-02  1.283E-02
:PUP013:      0   -4   -4 -8.70962718E-03 -2.016E-03  5.317E-03
:PUP015:     -2   -4   -4  3.71122736E-03  3.651E-04 -2.725E-03
:PUP016:      0    0   -6  9.30045871E-04  9.185E-05 -6.013E-04
:PUP017:      0   -2   -6 -5.47630250E-03 -8.613E-04  5.327E-03
:PUP019:     -2   -2   -6  5.08506865E-04 -2.546E-04 -7.170E-04
  
:PDN001:      0    0    0  1.55027311E-02 -1.331E-03  4.014E-03
:PDN003:      0    0   -2 -6.89075477E-03  3.031E-03  2.853E-03
:PDN004:      0   -2   -2  6.10612685E-03 -1.068E-02 -1.845E-02
:PDN006:     -2   -2   -2  2.57692199E-03  1.890E-03  1.507E-03
:PDN007:      0    0   -4 -7.54244634E-03 -3.037E-03 -1.111E-03
:PDN009:      0   -2   -4  1.10822520E-02  2.156E-03 -2.049E-03
:PDN010:     -2   -2   -4 -2.46088990E-02 -5.851E-03  1.170E-02
:PDN013:      0   -4   -4 -6.35588411E-03 -1.049E-03  4.758E-03
:PDN015:     -2   -4   -4  2.82701662E-03 -3.010E-04 -2.914E-03
:PDN016:      0    0   -6  7.19423672E-04 -7.204E-05 -2.859E-04
:PDN017:      0   -2   -6 -3.85548098E-03 -1.612E-04  2.869E-03
:PDN019:     -2   -2   -6  3.23003024E-04 -4.940E-04 -7.545E-04

:ENE  : *WARNING** TOTAL ENERGY IN Ry =       -24232.16896608

 Flat Integration
 New Mode for Coulomb Integral
 Consistent 3/8+Simpson combinations
 Extension of core to zero
 LDM version in phi
 Fifth-order quadrature in outwin


            ---------
:ITE003:  3. ITERATION
            ---------

:NATO :    3 INDEPENDENT AND    4 TOTAL ATOMS IN UNITCELL
       SUBSTANCE: FeRh                                                        

       LATTICE                      = F   
:POT  : POTENTIAL OPTION EX_PBE EC_PBE VX_PBE VC_PBE
:LAT  : LATTICE CONSTANTS= 11.27222 11.27222 11.27222    1.571    1.571    1.571
:VOL  : UNIT CELL VOLUME =     358.07036
       MODE OF CALCULATION IS       = RELA
       SPINPOLARIZED CALCULATION
:IFFT  : FFT-parameters:   90   90   90 Factor: 2.00


   CONVERGENCE PARAMETER FOR PSEUDOCHARGE: NCON=  9
   MAXIMAL VALUE OF RMT(JATOM)*ABSK(NKK) : RK  =29.05063


:VKCOUL :  VK-COUL convergence: 0.529E-07
       ATOMNUMBER=  1 Fe1        VCOUL-ZERO =  0.61946E+00
       ATOMNUMBER=  2 Fe2        VCOUL-ZERO =  0.61946E+00
       ATOMNUMBER=  3 Rh1        VCOUL-ZERO =  0.59029E+00
:FIT001: LUSE= 13 SIGMA OF V-XC FIT FOR ATOM  1  0.6982238E-02
:FIT001: LUSE= 13 SIGMA OF V-XC FIT FOR ATOM  1  0.1660435E-02
:FIT002: LUSE= 13 SIGMA OF V-XC FIT FOR ATOM  2  0.6982238E-02
:FIT002: LUSE= 13 SIGMA OF V-XC FIT FOR ATOM  2  0.1660435E-02
:FIT003: LUSE= 13 SIGMA OF V-XC FIT FOR ATOM  3  0.1400967E-02
:FIT003: LUSE= 13 SIGMA OF V-XC FIT FOR ATOM  3  0.3494686E-03
:DEN  : DENSITY INTEGRAL  =         -9881.59136711   (Ry)
       ELS_POTENTIAL_AT Z=0 and Z=0.5:  -0.20387  -0.20387
       ELS_POTENTIAL_AT Y=0 and Y=0.5:   0.00000   0.00000
:VZERO:v0,v0c,v0x  -0.77506  -0.20387  -0.57120 v5,v5c,v5x  -0.77506  -0.20387  -0.57120
:VZERY:v0,v0c,v0x  -0.82970   0.00000  -0.82970 v5,v5c,v5x  -0.82970   0.00000  -0.82970
:VZERX:v0,v0c,v0x  -0.82970   0.00000  -0.82970 v5,v5c,v5x  -0.82970   0.00000  -0.82970
:LMAX-WF:   10   Non-Spherical LMAX:   4

          ATOMIC SPHERE DEPENDENT PARAMETERS FOR ATOM  Fe1       
:e__0001: OVERALL ENERGY PARAMETER IS    0.5658
          OVERALL BASIS SET ON ATOM IS LAPW
:E1_0001: E( 1)=    0.5658
             APW+lo
:E1_0001: E( 1)=   -3.2187   E(BOTTOM)=   -3.251   E(TOP)=   -3.186  1  2   175
             LOCAL ORBITAL
:E2_0001: E( 2)=    0.5642   E(BOTTOM)=    0.322   E(TOP)=    0.807  0  1   122
             APW+lo
:E0_0001: E( 0)=    0.5658
             APW+lo

          ATOMIC SPHERE DEPENDENT PARAMETERS FOR ATOM  Fe2       
:e__0002: OVERALL ENERGY PARAMETER IS    0.5658
          OVERALL BASIS SET ON ATOM IS LAPW
:E1_0002: E( 1)=    0.5658
             APW+lo
:E1_0002: E( 1)=   -3.2187   E(BOTTOM)=   -3.251   E(TOP)=   -3.186  1  2   175
             LOCAL ORBITAL
:E2_0002: E( 2)=    0.5642   E(BOTTOM)=    0.322   E(TOP)=    0.807  0  1   122
             APW+lo
:E0_0002: E( 0)=    0.5658
             APW+lo

          ATOMIC SPHERE DEPENDENT PARAMETERS FOR ATOM  Rh1       
:e__0003: OVERALL ENERGY PARAMETER IS    0.5658
          OVERALL BASIS SET ON ATOM IS LAPW
:E1_0003: E( 1)=    0.5658
             APW+lo
:E1_0003: E( 1)=   -2.6782   E(BOTTOM)=   -2.778   E(TOP)=   -2.578  2  3   164
             LOCAL ORBITAL
:E2_0003: E( 2)=    0.5727   E(BOTTOM)=    0.116   E(TOP)=    1.029  1  2   143
             APW+lo
:E0_0003: E( 0)=    0.5658
             APW+lo

       K=   0.00000   0.00000   0.00000            1
:RKM  : MATRIX SIZE   185LOs:  48  RKM= 6.64  WEIGHT= 1.00  PGR:    
       EIGENVALUES ARE:
:EIG00001:      -3.2126885   -3.2126885   -3.2126885   -3.2108803   -3.2108803
:EIG00006:      -3.2108803   -2.6611174   -2.6611174   -2.6611174   -2.6531909
:EIG00011:      -2.6531909   -2.6531909    0.0263657    0.2935192    0.2935192
:EIG00016:       0.3662676    0.3662676    0.3662676    0.4899672    0.4899672
:EIG00021:       0.4899672    0.5249719    0.5249719    0.5249719    0.6643183
:EIG00026:       0.6643183    0.6765068    0.6765068    0.7269125    0.7269125
:EIG00031:       0.7599355    0.7599355    0.7599355    1.2135000    1.2768024
:EIG00036:       1.2768024    1.2768024    1.2859472    1.2859472    1.2859472
:EIG00041:       1.3996275    1.3996275    1.3996275    1.4542921    1.9459617
:EIG00046:       1.9459617    2.0310107    2.1064867    2.1064867    2.1064867
 
       ********************************************************

:KPT   :      NUMBER OF K-POINTS:    20
:LMAX-WF:   10   Non-Spherical LMAX:   4

          ATOMIC SPHERE DEPENDENT PARAMETERS FOR ATOM  Fe1       
:e__0001: OVERALL ENERGY PARAMETER IS    0.5658
          OVERALL BASIS SET ON ATOM IS LAPW
:E1_0001: E( 1)=    0.5658
             APW+lo
:E1_0001: E( 1)=   -3.0285   E(BOTTOM)=   -3.062   E(TOP)=   -2.995  1  2   197
             LOCAL ORBITAL
:E2_0001: E( 2)=    0.7454   E(BOTTOM)=    0.493   E(TOP)=    0.997  0  1   125
             APW+lo
:E0_0001: E( 0)=    0.5658
             APW+lo

          ATOMIC SPHERE DEPENDENT PARAMETERS FOR ATOM  Fe2       
:e__0002: OVERALL ENERGY PARAMETER IS    0.5658
          OVERALL BASIS SET ON ATOM IS LAPW
:E1_0002: E( 1)=    0.5658
             APW+lo
:E1_0002: E( 1)=   -3.0285   E(BOTTOM)=   -3.062   E(TOP)=   -2.995  1  2   197
             LOCAL ORBITAL
:E2_0002: E( 2)=    0.7454   E(BOTTOM)=    0.493   E(TOP)=    0.997  0  1   124
             APW+lo
:E0_0002: E( 0)=    0.5658
             APW+lo

          ATOMIC SPHERE DEPENDENT PARAMETERS FOR ATOM  Rh1       
:e__0003: OVERALL ENERGY PARAMETER IS    0.5658
          OVERALL BASIS SET ON ATOM IS LAPW
:E1_0003: E( 1)=    0.5658
             APW+lo
:E1_0003: E( 1)=   -2.5779   E(BOTTOM)=   -2.677   E(TOP)=   -2.479  2  3   172
             LOCAL ORBITAL
:E2_0003: E( 2)=    0.5658   E(BOTTOM)=    0.231   E(TOP)= -200.000  1 -1    87
             APW+lo
:E0_0003: E( 0)=    0.5658
             APW+lo

       K=   0.00000   0.00000   0.00000            1
:RKM  : MATRIX SIZE   185LOs:  48  RKM= 6.64  WEIGHT= 1.00  PGR:    
       EIGENVALUES ARE:
:EIG00001:      -3.0222596   -3.0222596   -3.0222596   -3.0203995   -3.0203995
:EIG00006:      -3.0203995   -2.5605389   -2.5605389   -2.5605389   -2.5529853
:EIG00011:      -2.5529853   -2.5529853    0.1836453    0.4380941    0.4380941
:EIG00016:       0.5006895    0.5006895    0.5006895    0.6651363    0.6651363
:EIG00021:       0.6651363    0.6699571    0.6699571    0.6699571    0.8264996
:EIG00026:       0.8264996    0.8393105    0.8393105    0.8627730    0.8627730
:EIG00031:       0.9147665    0.9147665    0.9147665    1.3700510    1.4434828
:EIG00036:       1.4434828    1.4434828    1.4454229    1.4454229    1.4454229
:EIG00041:       1.5443307    1.5443307    1.5443307    1.5889090    2.1190761
:EIG00046:       2.1190761    2.1725629
 
       ********************************************************

:KPT   :      NUMBER OF K-POINTS:    20
:GAP (global)   :    0.0    Ry =     0.0   eV (metal)
:GAP (this spin):    0.0    Ry =     0.0   eV (metal)
         Bandranges (emin - emax) and occupancy:
:BAN00024:  24    0.483901    0.591712  1.00000000
:BAN00025:  25    0.585127    0.664318  1.00000000
:BAN00026:  26    0.602102    0.671769  1.00000000
:BAN00027:  27    0.620714    0.676507  1.00000000
:BAN00028:  28    0.643870    0.676507  1.00000000
:BAN00029:  29    0.657469    0.726913  1.00000000
:BAN00030:  30    0.669912    0.726913  1.00000000
:BAN00031:  31    0.672263    0.759935  1.00000000
:BAN00032:  32    0.700209    0.759935  1.00000000
:BAN00033:  33    0.700209    0.774975  1.00000000
:BAN00034:  34    0.752711    1.213500  0.25657690
:BAN00035:  35    0.791582    1.276802  0.00000000
:BAN00036:  36    0.800279    1.276802  0.00000000
:BAN00037:  37    1.231793    1.349170  0.00000000
:BAN00038:  38    1.241012    1.501212  0.00000000
:BAN00039:  39    1.281211    1.750585  0.00000000
        Energy to separate low and high energystates:   -0.02363


:NOE  : NUMBER OF ELECTRONS          =   58.000

:FER  : F E R M I - ENERGY(TETRAH.M.)=   0.7861650050
:GMA  : POTENTIAL AND CHARGE CUT-OFF  12.00 Ry**.5

:POS001: ATOM    1 X,Y,Z = 0.00000 0.00000 0.00000  MULT= 1  ZZ= 26.000  Fe1       

       LMMAX  5
       LM=   0 0  4 0  4 4  6 0  6 4

:CHA001: TOTAL VALENCE CHARGE INSIDE SPHERE   1 =   8.0244    (RMT=  2.4300 )
:PCS001: PARTIAL CHARGES SPHERE =  1 S,P,D,F,      D-EG,D-T2G 
:QTL001: 0.2557 3.2922 4.4334 0.0315 0.0000 0.0000 0.0000 1.8431 2.5903 0.0000 0.0000 0.0000
        Q-s-low E-s-low   Q-p-low E-p-low   Q-d-low E-d-low   Q-f-low E-f-low
:EPL001:  0.0006 -2.6666    2.9951 -3.2115    0.0014 -2.6622    0.0006 -2.6627
        Q-s-hi  E-s-hi    Q-p-hi  E-p-hi    Q-d-hi  E-d-hi    Q-f-hi  E-f-hi 
:EPH001:  0.2551  0.2974    0.2971  0.4524    4.4321  0.5865    0.0309  0.5432

:POS002: ATOM    2 X,Y,Z = 0.50000 0.00000 0.00000  MULT= 1  ZZ= 26.000  Fe2       

       LMMAX  5
       LM=   0 0  4 0  4 4  6 0  6 4

:CHA002: TOTAL VALENCE CHARGE INSIDE SPHERE   2 =   8.0244    (RMT=  2.4300 )
:PCS002: PARTIAL CHARGES SPHERE =  2 S,P,D,F,      D-EG,D-T2G 
:QTL002: 0.2557 3.2922 4.4334 0.0315 0.0000 0.0000 0.0000 1.8431 2.5903 0.0000 0.0000 0.0000
        Q-s-low E-s-low   Q-p-low E-p-low   Q-d-low E-d-low   Q-f-low E-f-low
:EPL002:  0.0006 -2.6666    2.9951 -3.2115    0.0014 -2.6622    0.0006 -2.6627
        Q-s-hi  E-s-hi    Q-p-hi  E-p-hi    Q-d-hi  E-d-hi    Q-f-hi  E-f-hi 
:EPH002:  0.2551  0.2974    0.2971  0.4524    4.4321  0.5865    0.0309  0.5432

:POS003: ATOM    3 X,Y,Z = 0.25000 0.25000 0.25000  MULT= 2  ZZ= 45.000  Rh1       

       LMMAX  6
       LM=   0 0  4 0  4 4  6 0  6 4 -3 2

:CHA003: TOTAL VALENCE CHARGE INSIDE SPHERE   3 =   7.2907    (RMT=  2.4300 )
:PCS003: PARTIAL CHARGES SPHERE =  3 S,P,D,F,      D-EG,D-T2G 
:QTL003: 0.1906 3.1891 3.8758 0.0272 0.0000 0.0000 0.0000 1.5562 2.3196 0.0000 0.0000 0.0000
        Q-s-low E-s-low   Q-p-low E-p-low   Q-d-low E-d-low   Q-f-low E-f-low
:EPL003:  0.0002 -3.1225    2.9785 -2.6578    0.0004 -3.1359    0.0002 -3.1341
        Q-s-hi  E-s-hi    Q-p-hi  E-p-hi    Q-d-hi  E-d-hi    Q-f-hi  E-f-hi 
:EPH003:  0.1904  0.2983    0.2106  0.4684    3.8754  0.5344    0.0270  0.5594

:CHA  : TOTAL VALENCE CHARGE INSIDE UNIT CELL =      33.256577

:SUM  : SUM OF EIGENVALUES =         -23.974348529

:GAP (global)   :    0.0    Ry =     0.0   eV (metal)
:GAP (this spin):    0.0    Ry =     0.0   eV (metal)
         Bandranges (emin - emax) and occupancy:
:BAN00017:  17    0.500689    0.582880  1.00000000
:BAN00018:  18    0.500689    0.591769  1.00000000
:BAN00019:  19    0.540023    0.665136  1.00000000
:BAN00020:  20    0.594768    0.666411  1.00000000
:BAN00021:  21    0.600377    0.666411  1.00000000
:BAN00022:  22    0.605799    0.709666  1.00000000
:BAN00023:  23    0.605799    0.746925  1.00000000
:BAN00024:  24    0.630193    0.769405  1.00000000
:BAN00025:  25    0.747300    0.826500  0.57236731
:BAN00026:  26    0.773168    0.833092  0.17123168
:BAN00027:  27    0.786959    0.839311 -0.00017588
:BAN00028:  28    0.806940    0.839311  0.00000000
:BAN00029:  29    0.821412    0.867311  0.00000000
:BAN00030:  30    0.830433    0.868527  0.00000000
:BAN00031:  31    0.832320    0.914766  0.00000000
:BAN00032:  32    0.858377    0.914766  0.00000000
        Energy to separate low and high energystates:    0.13365


:NOE  : NUMBER OF ELECTRONS          =   58.000

:FER  : F E R M I - ENERGY(TETRAH.M.)=   0.7861650050
:GMA  : POTENTIAL AND CHARGE CUT-OFF  12.00 Ry**.5

:POS001: ATOM    1 X,Y,Z = 0.00000 0.00000 0.00000  MULT= 1  ZZ= 26.000  Fe1       

       LMMAX  5
       LM=   0 0  4 0  4 4  6 0  6 4

:CHA001: TOTAL VALENCE CHARGE INSIDE SPHERE   1 =   5.0834    (RMT=  2.4300 )
:PCS001: PARTIAL CHARGES SPHERE =  1 S,P,D,F,      D-EG,D-T2G 
:QTL001: 0.2327 3.2473 1.5733 0.0226 0.0000 0.0000 0.0000 0.5079 1.0654 0.0000 0.0000 0.0000
        Q-s-low E-s-low   Q-p-low E-p-low   Q-d-low E-d-low   Q-f-low E-f-low
:EPL001:  0.0005 -2.5658    2.9948 -3.0210    0.0013 -2.5615    0.0006 -2.5618
        Q-s-hi  E-s-hi    Q-p-hi  E-p-hi    Q-d-hi  E-d-hi    Q-f-hi  E-f-hi 
:EPH001:  0.2322  0.4167    0.2524  0.5656    1.5720  0.6275    0.0220  0.6179

:POS002: ATOM    2 X,Y,Z = 0.50000 0.00000 0.00000  MULT= 1  ZZ= 26.000  Fe2       

       LMMAX  5
       LM=   0 0  4 0  4 4  6 0  6 4

:CHA002: TOTAL VALENCE CHARGE INSIDE SPHERE   2 =   5.0834    (RMT=  2.4300 )
:PCS002: PARTIAL CHARGES SPHERE =  2 S,P,D,F,      D-EG,D-T2G 
:QTL002: 0.2327 3.2473 1.5733 0.0226 0.0000 0.0000 0.0000 0.5079 1.0654 0.0000 0.0000 0.0000
        Q-s-low E-s-low   Q-p-low E-p-low   Q-d-low E-d-low   Q-f-low E-f-low
:EPL002:  0.0005 -2.5658    2.9948 -3.0210    0.0013 -2.5615    0.0006 -2.5618
        Q-s-hi  E-s-hi    Q-p-hi  E-p-hi    Q-d-hi  E-d-hi    Q-f-hi  E-f-hi 
:EPH002:  0.2322  0.4167    0.2524  0.5656    1.5720  0.6275    0.0220  0.6179

:POS003: ATOM    3 X,Y,Z = 0.25000 0.25000 0.25000  MULT= 2  ZZ= 45.000  Rh1       

       LMMAX  6
       LM=   0 0  4 0  4 4  6 0  6 4 -3 2

:CHA003: TOTAL VALENCE CHARGE INSIDE SPHERE   3 =   6.1509    (RMT=  2.4300 )
:PCS003: PARTIAL CHARGES SPHERE =  3 S,P,D,F,      D-EG,D-T2G 
:QTL003: 0.1851 3.1596 2.7881 0.0148 0.0000 0.0000 0.0000 0.9128 1.8753 0.0000 0.0000 0.0000
        Q-s-low E-s-low   Q-p-low E-p-low   Q-d-low E-d-low   Q-f-low E-f-low
:EPL003:  0.0002 -2.9555    2.9794 -2.5574    0.0004 -2.9644    0.0002 -2.9610
        Q-s-hi  E-s-hi    Q-p-hi  E-p-hi    Q-d-hi  E-d-hi    Q-f-hi  E-f-hi 
:EPH003:  0.1849  0.4364    0.1802  0.5911    2.7877  0.5790    0.0146  0.6377

:CHA  : TOTAL VALENCE CHARGE INSIDE UNIT CELL =      24.743423

:SUM  : SUM OF EIGENVALUES =         -26.165304486


        1.ATOM      Fe1                   5 CORE STATES
:1S 001: 1S                -512.981268287 Ry
:2S 001: 2S                 -58.929497579 Ry
:2PP001: 2P*                -50.622735966 Ry
:2P 001: 2P                 -49.706105063 Ry
:3S 001: 3S                  -5.700178790 Ry

        2.ATOM      Fe2                   5 CORE STATES
:1S 002: 1S                -512.981268295 Ry
:2S 002: 2S                 -58.929497586 Ry
:2PP002: 2P*                -50.622735973 Ry
:2P 002: 2P                 -49.706105070 Ry
:3S 002: 3S                  -5.700178794 Ry

        3.ATOM      Rh1                  10 CORE STATES
:1S 003: 1S               -1691.282167619 Ry
:2S 003: 2S                -244.183462729 Ry
:2PP003: 2P*               -225.990549897 Ry
:2P 003: 2P                -215.361814456 Ry
:3S 003: 3S                 -42.717932723 Ry
:3PP003: 3P*                -35.600676640 Ry
:3P 003: 3P                 -33.772046455 Ry
:3DD003: 3D*                -21.177052999 Ry
:3D 003: 3D                 -20.816463624 Ry
:4S 003: 4S                  -5.003362361 Ry

        1.ATOM      Fe1                   5 CORE STATES
:1S 001: 1S                -512.980486229 Ry
:2S 001: 2S                 -58.847108954 Ry
:2PP001: 2P*                -50.561316182 Ry
:2P 001: 2P                 -49.642898795 Ry
:3S 001: 3S                  -5.506990707 Ry

        2.ATOM      Fe2                   5 CORE STATES
:1S 002: 1S                -512.980486237 Ry
:2S 002: 2S                 -58.847108961 Ry
:2PP002: 2P*                -50.561316189 Ry
:2P 002: 2P                 -49.642898802 Ry
:3S 002: 3S                  -5.506990712 Ry

        3.ATOM      Rh1                  10 CORE STATES
:1S 003: 1S               -1691.281057570 Ry
:2S 003: 2S                -244.162829646 Ry
:2PP003: 2P*               -225.975536247 Ry
:2P 003: 2P                -215.345755199 Ry
:3S 003: 3S                 -42.706304973 Ry
:3PP003: 3P*                -35.587256312 Ry
:3P 003: 3P                 -33.759048117 Ry
:3DD003: 3D*                -21.157366556 Ry
:3D 003: 3D                 -20.796836502 Ry
:4S 003: 4S                  -4.909852260 Ry
:CINT001 Core Integral Atom   1 Up    5.999610 Dn   5.999595 Total  11.999205
:CINT002 Core Integral Atom   2 Up    5.999610 Dn   5.999595 Total  11.999205
:CINT003 Core Integral Atom   3 Up   14.998606 Dn  14.998648 Total  29.997254

       DENSITY AT NUCLEUS
        JATOM        VALENCE       SEMI-CORE          CORE           TOTAL
:RTO001:   1        7.244109        0.000000    15301.746330    15308.990439
:RTO002:   2        7.244109        0.000000    15301.746330    15308.990439
:RTO003:   3       24.551142        0.000000   155310.805425   155335.356567

       HYPERFINE FIELDS FOR THOMSON RADIUS
:HFF001:          158.826           0.000        -306.382        -147.555 (KGAUSS)
:HFF002:          158.826           0.000        -306.382        -147.555 (KGAUSS)
:HFF003:           81.253           0.000        -459.964        -378.712 (KGAUSS)
     
       CHARGES OF NEW CHARGE DENSITY
:NTO   : INTERSTITIAL     UP =     2.626465 DN =     2.274880 TOT =     4.901345
:NPC   : PW Pseudocharge  UP =     6.342828 DN =     5.153708 TOT =    11.496536
:NTO001: CHARGE SPHERE  1 UP =    14.023984 DN =    11.082962 TOT =    25.106946
:NTO002: CHARGE SPHERE  2 UP =    14.023984 DN =    11.082962 TOT =    25.106946
:NTO003: CHARGE SPHERE  3 UP =    22.289269 DN =    21.149539 TOT =    43.438808

:NEC01: NUCLEAR AND ELECTRONIC CHARGE    142.00000   141.99285
     
       CHARGES OF OLD CHARGE DENSITY
:OTO   : INTERSTITIAL     UP =     2.693829 DN =     1.139537 TOT =     3.833366
:OPC   : PW Pseudocharge  UP =     7.447038 DN =     4.411532 TOT =    11.858569
:OTO001: CHARGE SPHERE  1 UP =    14.097886 DN =    11.154820 TOT =    25.252706
:OTO002: CHARGE SPHERE  2 UP =    14.097886 DN =    11.154820 TOT =    25.252706
:OTO003: CHARGE SPHERE  3 UP =    23.031051 DN =    20.799560 TOT =    43.830611

:NEC02: NUCLEAR AND ELECTRONIC CHARGE    142.00000   142.00000
     
       CONVERGENCE TEST
:DTO001: DIFFERENCE SPHERE  1 UP =  0.0532710 DN =  0.5636214 TOT =  0.6168924
:DTO002: DIFFERENCE SPHERE  2 UP =  0.0532710 DN =  0.5636214 TOT =  0.6168924
:DTO003: DIFFERENCE SPHERE  3 UP =  0.5166814 DN =  0.2108492 TOT =  0.7275305

:DIS  :  CHARGE DISTANCE       ( 0.5636214 for atom    2 spin 2)      1.3444229
 PW Mixed is           49
 
******************************************************
* MULTISECANT MIXING VER9 RELEASE 10.4.0              *
* Slow Mode, cautious                                *
* Fixed density scale                                *
* Regularization       1.000E-04                     *
* Step Trust Radius    0.75000                       *
* Trust Upper Limit    2.000E+00                     *
* Max Number of Memory Steps   12                    *
******************************************************
 
:PWTMP   1.1765E+02  4.5917E+02  3.5807E+02
:PLANE:  PW TOTAL      2.6958 DISTAN   8.04E-01  2.98E+01 %
:CHARG:  CLM/ATOM    212.0492 DISTAN   3.98E-01  1.88E-01 %
INFO: Reducing dbase  1.00000E-02 1.34442E+00 8.62446E-03
 
Step History
        DMIX         DMIXT        Red     Pred      Trust     Lambda    MagRel    MagAbs     Beta
  1   3.5000E-02   3.5000E-02 -1.00E+00  1.00E+00 -1.00E+01  1.00E+00  3.50E-02  3.50E-02  1.00E+00
  2   2.0448E-02   2.0448E-02  6.83E-01  1.00E+00 -1.00E+01  1.00E+00  2.04E-02  3.93E-02  1.00E+00
  3   2.7989E-02   2.7989E-02 -1.00E+00  1.00E+00 -1.00E+01  1.00E+00  2.80E-02  3.67E-02  1.00E+00
:JACOBIANS    7.444E-01   5.048E-04
  
:NORMS:  1/Froebius, Min, Max, Used   0.9967E+00  0.4974E+00  0.9968E+00  0.9968E+00
:INFO :  Number of Memory Steps    2 Skipping    0
:INFO :  SLambda=    0.0120154081  Max    0.0120154081
:PREDicted Charge, CTotal, PW Trust    3.113E-03   8.407E-03   4.337E-01
:PREDicted DMix, Beta, BLim   6.7793E-02  9.9159E-01  9.2687E-01

Eigenvalues, unscaled except for SY+YY
   #     SY Real        SY Imag          SS             YY         SY+YY Real      SY+YY Imag
   1   2.753353E-14   0.000000E+00   1.986712E+00   1.999326E+00   6.736549E-04   0.000000E+00
   2   1.988418E+00   0.000000E+00   0.000000E+00   6.736521E-04   2.023218E+00   0.000000E+00
 
:INFO :  Singular value  2.023E+00 Weight  1.000E+00 Projection  4.210E-04
:INFO :  Singular value  6.737E-04 Weight  9.190E-01 Projection -1.062E+00
:RANK :  ACTIVE   1.92/2  =  95.95 % ; YY RANK   1.92/2  =  95.95 %
 
:DLIM :  Beta Active  9.937E-01
:BLIM :  VZERO Control Off
:TRUST:  Step 1.68E-01  Charge 7.50E-02 (e) CTO  2.50E-01 (e) PW  3.85E-01 (e)
:DIRM :  MEMORY  2/12 SCALE   1.000 RED  0.96 PRED  1.00 NEXT  1.00 BETA  0.99
:TRAVE:  Charge 1.84E-02 (e) CTO  5.15E-02 (e) PW  3.02E-02 (e)
:DIRP :  |MSR1|= 1.945E-02 |PRATT|= 4.018E-01 ANGLE=   2.9 DEGREES
:DIRQ :  |MSR1|= 5.704E-02 |PRATT|= 1.194E+00 ANGLE=   1.3 DEGREES
:DIRT :  |MSR1|= 6.027E-02 |PRATT|= 1.260E+00 ANGLE=   1.6 DEGREES
:MIX  :   MSD1   REGULARIZATION:  2.00E-04 GREED: 0.04782  Newton 1.00  0.0478                
     
       CHARGES OF MIXED CHARGE DENSITY
:CTO   : INTERSTITIAL     UP =     2.690793 DN =     1.194072 TOT =     3.884864
:CPC   : PW Pseudocharge  UP =     7.398115 DN =     4.448902 TOT =    11.847018
:CTO001: CHARGE SPHERE  1 UP =    14.094404 DN =    11.150992 TOT =    25.245396
:CTO002: CHARGE SPHERE  2 UP =    14.094404 DN =    11.150992 TOT =    25.245396
:CTO003: CHARGE SPHERE  3 UP =    22.995690 DN =    20.816481 TOT =    43.812172

       SPIN MAGNETIC MOMENTS OF MIXED CHARGE DENSITY
:MMINT:  MAGNETIC MOMENT IN INTERSTITIAL  =    1.49672
:MMI001: MAGNETIC MOMENT IN SPHERE   1    =    2.94341
:MMI002: MAGNETIC MOMENT IN SPHERE   2    =    2.94341
:MMI003: MAGNETIC MOMENT IN SPHERE   3    =    2.17921
:MMTOT:  SPIN MAGNETIC MOMENT IN CELL     =   11.74196

:NEC03: NUCLEAR AND ELECTRONIC CHARGE    142.00000   142.00000

PW CHANGE     H    K    L      Current       Change    Residue
:PUP001:      0    0    0  2.81757686E-02 -1.451E-04 -3.235E-03
:PUP003:      0    0   -2 -1.15459978E-02  2.782E-04  6.059E-03
:PUP004:      0   -2   -2 -4.01647836E-03  2.375E-04  3.642E-03
:PUP005:     -1   -1   -3 -1.43806620E-12 -1.439E-12 -2.250E-11
:PUP006:     -2   -2   -2  3.78298596E-03 -9.175E-05 -1.734E-03
:PUP007:      0    0   -4 -1.29862280E-02  3.142E-04  6.227E-03
:PUP009:      0   -2   -4  1.45187229E-02 -4.634E-04 -9.422E-03
:PUP010:     -2   -2   -4 -3.51052888E-02  1.157E-03  2.358E-02
:PUP013:      0   -4   -4 -8.35343794E-03  3.562E-04  7.333E-03
:PUP015:     -2   -4   -4  3.56245029E-03 -1.488E-04 -3.090E-03
:PUP016:      0    0   -6  8.96645115E-04 -3.340E-05 -6.931E-04
:PUP017:      0   -2   -6 -5.17820578E-03  2.981E-04  6.186E-03
  
:PDN001:      0    0    0  1.57593999E-02  2.567E-04  5.274E-03
:PDN002:     -1   -1   -1 -4.52029547E-12 -4.521E-12 -8.530E-11
:PDN003:      0    0   -2 -6.90814728E-03 -1.739E-05 -1.964E-04
:PDN004:      0   -2   -2  5.77325790E-03 -3.329E-04 -7.567E-03
:PDN005:     -1   -1   -3  2.22730873E-12  2.227E-12  5.371E-11
:PDN006:     -2   -2   -2  2.55498228E-03 -2.194E-05 -3.422E-04
:PDN007:      0    0   -4 -7.44029587E-03  1.022E-04  1.957E-03
:PDN008:     -1   -3   -3  2.11136715E-12  2.111E-12  4.241E-11
:PDN009:      0   -2   -4  1.08766517E-02 -2.056E-04 -4.163E-03
:PDN010:     -2   -2   -4 -2.37547041E-02  8.542E-04  1.753E-02
:PDN013:      0   -4   -4 -6.07585537E-03  2.800E-04  5.797E-03
:PDN015:     -2   -4   -4  2.70315023E-03 -1.239E-04 -2.605E-03

:ENE  : ********** TOTAL ENERGY IN Ry =       -24232.16031486

 Flat Integration
 New Mode for Coulomb Integral
 Consistent 3/8+Simpson combinations
 Extension of core to zero
 LDM version in phi
 Fifth-order quadrature in outwin


            ---------
:ITE004:  4. ITERATION
            ---------

:NATO :    3 INDEPENDENT AND    4 TOTAL ATOMS IN UNITCELL
       SUBSTANCE: FeRh                                                        

       LATTICE                      = F   
:POT  : POTENTIAL OPTION EX_PBE EC_PBE VX_PBE VC_PBE
:LAT  : LATTICE CONSTANTS= 11.27222 11.27222 11.27222    1.571    1.571    1.571
:VOL  : UNIT CELL VOLUME =     358.07036
       MODE OF CALCULATION IS       = RELA
       SPINPOLARIZED CALCULATION
:IFFT  : FFT-parameters:   90   90   90 Factor: 2.00


   CONVERGENCE PARAMETER FOR PSEUDOCHARGE: NCON=  9
   MAXIMAL VALUE OF RMT(JATOM)*ABSK(NKK) : RK  =29.05063


:VKCOUL :  VK-COUL convergence: 0.498E-07
       ATOMNUMBER=  1 Fe1        VCOUL-ZERO =  0.62214E+00
       ATOMNUMBER=  2 Fe2        VCOUL-ZERO =  0.62214E+00
       ATOMNUMBER=  3 Rh1        VCOUL-ZERO =  0.59187E+00
:FIT001: LUSE= 13 SIGMA OF V-XC FIT FOR ATOM  1  0.6413542E-02
:FIT001: LUSE= 13 SIGMA OF V-XC FIT FOR ATOM  1  0.6880522E-03
:FIT002: LUSE= 13 SIGMA OF V-XC FIT FOR ATOM  2  0.6413542E-02
:FIT002: LUSE= 13 SIGMA OF V-XC FIT FOR ATOM  2  0.6880522E-03
:FIT003: LUSE= 13 SIGMA OF V-XC FIT FOR ATOM  3  0.1186588E-02
:FIT003: LUSE= 13 SIGMA OF V-XC FIT FOR ATOM  3  0.4310544E-03
:DEN  : DENSITY INTEGRAL  =         -9878.23611101   (Ry)
       ELS_POTENTIAL_AT Z=0 and Z=0.5:  -0.20370  -0.20370
       ELS_POTENTIAL_AT Y=0 and Y=0.5:   0.00000   0.00000
:VZERO:v0,v0c,v0x  -0.77972  -0.20370  -0.57603 v5,v5c,v5x  -0.77972  -0.20370  -0.57603
:VZERY:v0,v0c,v0x  -0.82948   0.00000  -0.82948 v5,v5c,v5x  -0.82948   0.00000  -0.82948
:VZERX:v0,v0c,v0x  -0.82948   0.00000  -0.82948 v5,v5c,v5x  -0.82948   0.00000  -0.82948
:LMAX-WF:   10   Non-Spherical LMAX:   4

          ATOMIC SPHERE DEPENDENT PARAMETERS FOR ATOM  Fe1       
:e__0001: OVERALL ENERGY PARAMETER IS    0.5794
          OVERALL BASIS SET ON ATOM IS LAPW
:E1_0001: E( 1)=    0.5794
             APW+lo
:E1_0001: E( 1)=   -3.2394   E(BOTTOM)=   -3.272   E(TOP)=   -3.207  1  2   170
             LOCAL ORBITAL
:E2_0001: E( 2)=    0.5483   E(BOTTOM)=    0.310   E(TOP)=    0.787  0  1   122
             APW+lo
:E0_0001: E( 0)=    0.5794
             APW+lo

          ATOMIC SPHERE DEPENDENT PARAMETERS FOR ATOM  Fe2       
:e__0002: OVERALL ENERGY PARAMETER IS    0.5794
          OVERALL BASIS SET ON ATOM IS LAPW
:E1_0002: E( 1)=    0.5794
             APW+lo
:E1_0002: E( 1)=   -3.2394   E(BOTTOM)=   -3.272   E(TOP)=   -3.207  1  2   170
             LOCAL ORBITAL
:E2_0002: E( 2)=    0.5483   E(BOTTOM)=    0.310   E(TOP)=    0.787  0  1   122
             APW+lo
:E0_0002: E( 0)=    0.5794
             APW+lo

          ATOMIC SPHERE DEPENDENT PARAMETERS FOR ATOM  Rh1       
:e__0003: OVERALL ENERGY PARAMETER IS    0.5794
          OVERALL BASIS SET ON ATOM IS LAPW
:E1_0003: E( 1)=    0.5794
             APW+lo
:E1_0003: E( 1)=   -2.6943   E(BOTTOM)=   -2.794   E(TOP)=   -2.595  2  3   162
             LOCAL ORBITAL
:E2_0003: E( 2)=    0.5613   E(BOTTOM)=    0.108   E(TOP)=    1.015  1  2   145
             APW+lo
:E0_0003: E( 0)=    0.5794
             APW+lo

       K=   0.00000   0.00000   0.00000            1
:RKM  : MATRIX SIZE   185LOs:  48  RKM= 6.64  WEIGHT= 1.00  PGR:    
       EIGENVALUES ARE:
:EIG00001:      -3.2334625   -3.2334625   -3.2334625   -3.2316906   -3.2316906
:EIG00006:      -3.2316906   -2.6773605   -2.6773605   -2.6773605   -2.6695589
:EIG00011:      -2.6695589   -2.6695589    0.0256116    0.2856708    0.2856708
:EIG00016:       0.3599859    0.3599859    0.3599859    0.4783445    0.4783445
:EIG00021:       0.4783445    0.5124143    0.5124143    0.5124143    0.6490025
:EIG00026:       0.6490025    0.6585659    0.6585659    0.7144781    0.7144781
:EIG00031:       0.7445371    0.7445371    0.7445371    1.2105993    1.2693060
:EIG00036:       1.2693060    1.2693060    1.2841912    1.2841912    1.2841912
:EIG00041:       1.3930852    1.3930852    1.3930852    1.4511283    1.9387657
:EIG00046:       1.9387657    2.0269462    2.1069297    2.1069297    2.1069297
 
       ********************************************************

:KPT   :      NUMBER OF K-POINTS:    20
:LMAX-WF:   10   Non-Spherical LMAX:   4

          ATOMIC SPHERE DEPENDENT PARAMETERS FOR ATOM  Fe1       
:e__0001: OVERALL ENERGY PARAMETER IS    0.5794
          OVERALL BASIS SET ON ATOM IS LAPW
:E1_0001: E( 1)=    0.5794
             APW+lo
:E1_0001: E( 1)=   -3.0474   E(BOTTOM)=   -3.081   E(TOP)=   -3.014  1  2   192
             LOCAL ORBITAL
:E2_0001: E( 2)=    0.7306   E(BOTTOM)=    0.482   E(TOP)=    0.980  0  1   119
             APW+lo
:E0_0001: E( 0)=    0.5794
             APW+lo

          ATOMIC SPHERE DEPENDENT PARAMETERS FOR ATOM  Fe2       
:e__0002: OVERALL ENERGY PARAMETER IS    0.5794
          OVERALL BASIS SET ON ATOM IS LAPW
:E1_0002: E( 1)=    0.5794
             APW+lo
:E1_0002: E( 1)=   -3.0474   E(BOTTOM)=   -3.081   E(TOP)=   -3.014  1  2   192
             LOCAL ORBITAL
:E2_0002: E( 2)=    0.7306   E(BOTTOM)=    0.482   E(TOP)=    0.980  0  1   119
             APW+lo
:E0_0002: E( 0)=    0.5794
             APW+lo

          ATOMIC SPHERE DEPENDENT PARAMETERS FOR ATOM  Rh1       
:e__0003: OVERALL ENERGY PARAMETER IS    0.5794
          OVERALL BASIS SET ON ATOM IS LAPW
:E1_0003: E( 1)=    0.5794
             APW+lo
:E1_0003: E( 1)=   -2.5959   E(BOTTOM)=   -2.694   E(TOP)=   -2.498  2  3   168
             LOCAL ORBITAL
:E2_0003: E( 2)=    0.5794   E(BOTTOM)=    0.220   E(TOP)= -200.000  1 -1    91
             APW+lo
:E0_0003: E( 0)=    0.5794
             APW+lo

       K=   0.00000   0.00000   0.00000            1
:RKM  : MATRIX SIZE   185LOs:  48  RKM= 6.64  WEIGHT= 1.00  PGR:    
       EIGENVALUES ARE:
:EIG00001:      -3.0412409   -3.0412409   -3.0412409   -3.0394152   -3.0394152
:EIG00006:      -3.0394152   -2.5786272   -2.5786272   -2.5786272   -2.5711625
:EIG00011:      -2.5711625   -2.5711625    0.1765239    0.4272376    0.4272376
:EIG00016:       0.4895161    0.4895161    0.4895161    0.6521056    0.6521056
:EIG00021:       0.6521056    0.6560152    0.6560152    0.6560152    0.8117877
:EIG00026:       0.8117877    0.8250632    0.8250632    0.8470316    0.8470316
:EIG00031:       0.8982603    0.8982603    0.8982603    1.3635759    1.4330623
:EIG00036:       1.4330623    1.4330623    1.4355877    1.4355877    1.4355877
:EIG00041:       1.5326594    1.5326594    1.5326594    1.5807059    2.1046268
:EIG00046:       2.1046268    2.1656810    2.2633657    2.2633657    2.2633657
 
       ********************************************************

:KPT   :      NUMBER OF K-POINTS:    20
:GAP (global)   :    0.0    Ry =     0.0   eV (metal)
:GAP (this spin):    0.0    Ry =     0.0   eV (metal)
         Bandranges (emin - emax) and occupancy:
:BAN00025:  25    0.571624    0.649003  1.00000000
:BAN00026:  26    0.587787    0.655468  1.00000000
:BAN00027:  27    0.606963    0.658566  1.00000000
:BAN00028:  28    0.629332    0.658566  1.00000000
:BAN00029:  29    0.642744    0.714478  1.00000000
:BAN00030:  30    0.654415    0.714478  1.00000000
:BAN00031:  31    0.655888    0.744537  1.00000000
:BAN00032:  32    0.685644    0.744537  1.00000000
:BAN00033:  33    0.685644    0.759064  1.00000000
:BAN00034:  34    0.739130    1.210599  0.25047264
:BAN00035:  35    0.783596    1.269306 -0.00036237
:BAN00036:  36    0.790140    1.269306  0.00000000
:BAN00037:  37    1.227173    1.342212  0.00000000
:BAN00038:  38    1.234258    1.496834  0.00000000
:BAN00039:  39    1.278444    1.750173  0.00000000
:BAN00040:  40    1.284191    1.750173  0.00000000
        Energy to separate low and high energystates:   -0.02439


:NOE  : NUMBER OF ELECTRONS          =   58.000

:FER  : F E R M I - ENERGY(TETRAH.M.)=   0.7717249754
:GMA  : POTENTIAL AND CHARGE CUT-OFF  12.00 Ry**.5

:POS001: ATOM    1 X,Y,Z = 0.00000 0.00000 0.00000  MULT= 1  ZZ= 26.000  Fe1       

       LMMAX  5
       LM=   0 0  4 0  4 4  6 0  6 4

:CHA001: TOTAL VALENCE CHARGE INSIDE SPHERE   1 =   8.0377    (RMT=  2.4300 )
:PCS001: PARTIAL CHARGES SPHERE =  1 S,P,D,F,      D-EG,D-T2G 
:QTL001: 0.2545 3.2865 4.4544 0.0308 0.0000 0.0000 0.0000 1.8488 2.6055 0.0000 0.0000 0.0000
        Q-s-low E-s-low   Q-p-low E-p-low   Q-d-low E-d-low   Q-f-low E-f-low
:EPL001:  0.0006 -2.6828    2.9952 -3.2323    0.0014 -2.6784    0.0006 -2.6790
        Q-s-hi  E-s-hi    Q-p-hi  E-p-hi    Q-d-hi  E-d-hi    Q-f-hi  E-f-hi 
:EPH001:  0.2540  0.2942    0.2913  0.4456    4.4530  0.5713    0.0302  0.5331

:POS002: ATOM    2 X,Y,Z = 0.50000 0.00000 0.00000  MULT= 1  ZZ= 26.000  Fe2       

       LMMAX  5
       LM=   0 0  4 0  4 4  6 0  6 4

:CHA002: TOTAL VALENCE CHARGE INSIDE SPHERE   2 =   8.0377    (RMT=  2.4300 )
:PCS002: PARTIAL CHARGES SPHERE =  2 S,P,D,F,      D-EG,D-T2G 
:QTL002: 0.2545 3.2865 4.4544 0.0308 0.0000 0.0000 0.0000 1.8488 2.6055 0.0000 0.0000 0.0000
        Q-s-low E-s-low   Q-p-low E-p-low   Q-d-low E-d-low   Q-f-low E-f-low
:EPL002:  0.0006 -2.6828    2.9952 -3.2323    0.0014 -2.6784    0.0006 -2.6790
        Q-s-hi  E-s-hi    Q-p-hi  E-p-hi    Q-d-hi  E-d-hi    Q-f-hi  E-f-hi 
:EPH002:  0.2540  0.2942    0.2913  0.4456    4.4530  0.5713    0.0302  0.5331

:POS003: ATOM    3 X,Y,Z = 0.25000 0.25000 0.25000  MULT= 2  ZZ= 45.000  Rh1       

       LMMAX  6
       LM=   0 0  4 0  4 4  6 0  6 4 -3 2

:CHA003: TOTAL VALENCE CHARGE INSIDE SPHERE   3 =   7.2954    (RMT=  2.4300 )
:PCS003: PARTIAL CHARGES SPHERE =  3 S,P,D,F,      D-EG,D-T2G 
:QTL003: 0.1889 3.1845 3.8879 0.0264 0.0000 0.0000 0.0000 1.5594 2.3285 0.0000 0.0000 0.0000
        Q-s-low E-s-low   Q-p-low E-p-low   Q-d-low E-d-low   Q-f-low E-f-low
:EPL003:  0.0001 -3.1427    2.9788 -2.6741    0.0004 -3.1562    0.0002 -3.1545
        Q-s-hi  E-s-hi    Q-p-hi  E-p-hi    Q-d-hi  E-d-hi    Q-f-hi  E-f-hi 
:EPH003:  0.1887  0.2935    0.2057  0.4607    3.8875  0.5244    0.0262  0.5462

:CHA  : TOTAL VALENCE CHARGE INSIDE UNIT CELL =      33.250110

:SUM  : SUM OF EIGENVALUES =         -24.435839797

:GAP (global)   :    0.0    Ry =     0.0   eV (metal)
:GAP (this spin):    0.0    Ry =     0.0   eV (metal)
         Bandranges (emin - emax) and occupancy:
:BAN00017:  17    0.489516    0.571491  1.00000000
:BAN00018:  18    0.489516    0.578708  1.00000000
:BAN00019:  19    0.527905    0.652106  1.00000000
:BAN00020:  20    0.581990    0.652612  1.00000000
:BAN00021:  21    0.587630    0.652612  1.00000000
:BAN00022:  22    0.592845    0.695981  1.00000000
:BAN00023:  23    0.592845    0.732696  1.00000000
:BAN00024:  24    0.617600    0.754452  1.00000000
:BAN00025:  25    0.733617    0.811788  0.57206500
:BAN00026:  26    0.760611    0.818502  0.17962055
:BAN00027:  27    0.772482    0.825063 -0.00179583
:BAN00028:  28    0.792259    0.825063  0.00000000
:BAN00029:  29    0.805847    0.852892  0.00000000
:BAN00030:  30    0.816259    0.853233  0.00000000
:BAN00031:  31    0.817225    0.898260  0.00000000
:BAN00032:  32    0.842694    0.898260  0.00000000
        Energy to separate low and high energystates:    0.12652


:NOE  : NUMBER OF ELECTRONS          =   58.000

:FER  : F E R M I - ENERGY(TETRAH.M.)=   0.7717249754
:GMA  : POTENTIAL AND CHARGE CUT-OFF  12.00 Ry**.5

:POS001: ATOM    1 X,Y,Z = 0.00000 0.00000 0.00000  MULT= 1  ZZ= 26.000  Fe1       

       LMMAX  5
       LM=   0 0  4 0  4 4  6 0  6 4

:CHA001: TOTAL VALENCE CHARGE INSIDE SPHERE   1 =   5.0948    (RMT=  2.4300 )
:PCS001: PARTIAL CHARGES SPHERE =  1 S,P,D,F,      D-EG,D-T2G 
:QTL001: 0.2311 3.2428 1.5911 0.0223 0.0000 0.0000 0.0000 0.5100 1.0811 0.0000 0.0000 0.0000
        Q-s-low E-s-low   Q-p-low E-p-low   Q-d-low E-d-low   Q-f-low E-f-low
:EPL001:  0.0005 -2.5839    2.9949 -3.0401    0.0013 -2.5796    0.0005 -2.5800
        Q-s-hi  E-s-hi    Q-p-hi  E-p-hi    Q-d-hi  E-d-hi    Q-f-hi  E-f-hi 
:EPH001:  0.2305  0.4079    0.2480  0.5538    1.5898  0.6155    0.0217  0.6052

:POS002: ATOM    2 X,Y,Z = 0.50000 0.00000 0.00000  MULT= 1  ZZ= 26.000  Fe2       

       LMMAX  5
       LM=   0 0  4 0  4 4  6 0  6 4

:CHA002: TOTAL VALENCE CHARGE INSIDE SPHERE   2 =   5.0948    (RMT=  2.4300 )
:PCS002: PARTIAL CHARGES SPHERE =  2 S,P,D,F,      D-EG,D-T2G 
[...]
             APW+lo
:E1_0001: E( 1)=   -3.1650   E(BOTTOM)=   -3.197   E(TOP)=   -3.132  1  2   174
             LOCAL ORBITAL
:E2_0001: E( 2)=    0.6245   E(BOTTOM)=    0.381   E(TOP)=    0.868  0  1   123
             APW+lo
:E0_0001: E( 0)=    0.4570
             APW+lo

          ATOMIC SPHERE DEPENDENT PARAMETERS FOR ATOM  Fe2       
:e__0002: OVERALL ENERGY PARAMETER IS    0.4570
          OVERALL BASIS SET ON ATOM IS LAPW
:E1_0002: E( 1)=    0.4570
             APW+lo
:E1_0002: E( 1)=   -3.1654   E(BOTTOM)=   -3.198   E(TOP)=   -3.133  1  2   181
             LOCAL ORBITAL
:E2_0002: E( 2)=    0.6242   E(BOTTOM)=    0.381   E(TOP)=    0.868  0  1   125
             APW+lo
:E0_0002: E( 0)=    0.4570
             APW+lo

          ATOMIC SPHERE DEPENDENT PARAMETERS FOR ATOM  Rh1       
:e__0003: OVERALL ENERGY PARAMETER IS    0.4570
          OVERALL BASIS SET ON ATOM IS LAPW
:E1_0003: E( 1)=    0.4570
             APW+lo
:E1_0003: E( 1)=   -2.7555   E(BOTTOM)=   -2.850   E(TOP)=   -2.661  2  3   157
             LOCAL ORBITAL
:E2_0003: E( 2)=    0.5314   E(BOTTOM)=    0.095   E(TOP)=    0.968  1  2   142
             APW+lo
:E0_0003: E( 0)=    0.4570
             APW+lo

       K=   0.00000   0.00000   0.00000            1
:RKM  : MATRIX SIZE   185LOs:  48  RKM= 6.64  WEIGHT= 1.00  PGR:    
       EIGENVALUES ARE:
:EIG00001:      -3.1592189   -3.1592189   -3.1592189   -3.1574466   -3.1574466
:EIG00006:      -3.1574466   -2.7393396   -2.7393396   -2.7393396   -2.7321448
:EIG00011:      -2.7321448   -2.7321448    0.0485247    0.3025588    0.3025588
:EIG00016:       0.3503918    0.3503918    0.3503918    0.5208321    0.5208321
:EIG00021:       0.5208321    0.5303027    0.5303027    0.5303027    0.6875978
:EIG00026:       0.6875978    0.7047378    0.7047378    0.7515296    0.7515296
:EIG00031:       0.7693030    0.7693030    0.7693030    1.2596792    1.2949413
:EIG00036:       1.2949413    1.2949413    1.3047472    1.3047472    1.3047472
:EIG00041:       1.3940682    1.3940682    1.3940682    1.4560787    1.9520668
:EIG00046:       1.9520668    2.0680904    2.1249895    2.1249895    2.1249895
 
       ********************************************************

:KPT   :      NUMBER OF K-POINTS:    20
:GAP (global)   :    0.0    Ry =     0.0   eV (metal)
:GAP (this spin):    0.0    Ry =     0.0   eV (metal)
         Bandranges (emin - emax) and occupancy:
:BAN00025:  25    0.463553    0.508970  1.00000000
:BAN00026:  26    0.479016    0.508970  1.00000000
:BAN00027:  27    0.481321    0.515887  1.00000000
:BAN00028:  28    0.501242    0.534055  1.00000000
:BAN00029:  29    0.504501    0.612957  1.00000000
:BAN00030:  30    0.520572    0.612957  1.00000000
:BAN00031:  31    0.535678    0.621579  1.00000000
:BAN00032:  32    0.565110    0.621579  1.00000000
:BAN00033:  33    0.565110    0.629756  1.00000000
:BAN00034:  34    0.622562    1.178030  0.13687128
:BAN00035:  35    0.712489    1.226478 -0.00063993
:BAN00036:  36    0.737703    1.226478  0.00000000
:BAN00037:  37    1.169127    1.292231  0.00000000
:BAN00038:  38    1.188607    1.461477  0.00000000
:BAN00039:  39    1.242639    1.733501  0.00000000
:BAN00040:  40    1.275492    1.734952  0.00000000
        Energy to separate low and high energystates:   -0.02383


:NOE  : NUMBER OF ELECTRONS          =   58.000

:FER  : F E R M I - ENERGY(TETRAH.M.)=   0.6566516844
:GMA  : POTENTIAL AND CHARGE CUT-OFF  12.00 Ry**.5

:POS001: ATOM    1 X,Y,Z = 0.00000 0.00000 0.00000  MULT= 1  ZZ= 26.000  Fe1       

       LMMAX  5
       LM=   0 0  4 0  4 4  6 0  6 4

:CHA001: TOTAL VALENCE CHARGE INSIDE SPHERE   1 =   8.1400    (RMT=  2.4300 )
:PCS001: PARTIAL CHARGES SPHERE =  1 S,P,D,F,      D-EG,D-T2G 
:QTL001: 0.2462 3.2355 4.6223 0.0256 0.0000 0.0000 0.0000 1.8932 2.7291 0.0000 0.0000 0.0000
        Q-s-low E-s-low   Q-p-low E-p-low   Q-d-low E-d-low   Q-f-low E-f-low
:EPL001:  0.0005 -2.8073    2.9959 -3.4169    0.0012 -2.8035    0.0005 -2.8038
        Q-s-hi  E-s-hi    Q-p-hi  E-p-hi    Q-d-hi  E-d-hi    Q-f-hi  E-f-hi 
:EPH001:  0.2457  0.2700    0.2396  0.3913    4.6211  0.4273    0.0251  0.4530

:POS002: ATOM    2 X,Y,Z = 0.50000 0.00000 0.00000  MULT= 1  ZZ= 26.000  Fe2       

       LMMAX  5
       LM=   0 0  4 0  4 4  6 0  6 4

:CHA002: TOTAL VALENCE CHARGE INSIDE SPHERE   2 =   8.1407    (RMT=  2.4300 )
:PCS002: PARTIAL CHARGES SPHERE =  2 S,P,D,F,      D-EG,D-T2G 
:QTL002: 0.2463 3.2355 4.6229 0.0256 0.0000 0.0000 0.0000 1.8933 2.7295 0.0000 0.0000 0.0000
        Q-s-low E-s-low   Q-p-low E-p-low   Q-d-low E-d-low   Q-f-low E-f-low
:EPL002:  0.0005 -2.8073    2.9959 -3.4173    0.0012 -2.8035    0.0005 -2.8038
        Q-s-hi  E-s-hi    Q-p-hi  E-p-hi    Q-d-hi  E-d-hi    Q-f-hi  E-f-hi 
:EPH002:  0.2458  0.2700    0.2397  0.3913    4.6217  0.4270    0.0251  0.4530

:POS003: ATOM    3 X,Y,Z = 0.25000 0.25000 0.25000  MULT= 2  ZZ= 45.000  Rh1       

       LMMAX  6
       LM=   0 0  4 0  4 4  6 0  6 4 -3 2

:CHA003: TOTAL VALENCE CHARGE INSIDE SPHERE   3 =   7.3298    (RMT=  2.4300 )
:PCS003: PARTIAL CHARGES SPHERE =  3 S,P,D,F,      D-EG,D-T2G 
:QTL003: 0.1710 3.1391 3.9936 0.0196 0.0000 0.0000 0.0000 1.6028 2.3908 0.0000 0.0000 0.0000
        Q-s-low E-s-low   Q-p-low E-p-low   Q-d-low E-d-low   Q-f-low E-f-low
:EPL003:  0.0001 -3.3183    2.9810 -2.7992    0.0003 -3.3341    0.0002 -3.3332
        Q-s-hi  E-s-hi    Q-p-hi  E-p-hi    Q-d-hi  E-d-hi    Q-f-hi  E-f-hi 
:EPH003:  0.1708  0.2592    0.1581  0.3914    3.9933  0.4478    0.0194  0.4274

:CHA  : TOTAL VALENCE CHARGE INSIDE UNIT CELL =      33.136231

:SUM  : SUM OF EIGENVALUES =         -28.440996869

:GAP (global)   :    0.0    Ry =     0.0   eV (metal)
:GAP (this spin):    0.0    Ry =     0.0   eV (metal)
         Bandranges (emin - emax) and occupancy:
:BAN00017:  17    0.350392    0.438162  1.00000000
:BAN00018:  18    0.350392    0.443767  1.00000000
:BAN00019:  19    0.391449    0.520832  1.00000000
:BAN00020:  20    0.446801    0.520832  1.00000000
:BAN00021:  21    0.455939    0.520832  1.00000000
:BAN00022:  22    0.459152    0.584317  1.00000000
:BAN00023:  23    0.459152    0.593504  1.00000000
:BAN00024:  24    0.481973    0.635512  1.00000000
:BAN00025:  25    0.624710    0.694243  0.56311828
:BAN00026:  26    0.634769    0.694243  0.28156953
:BAN00027:  27    0.654680    0.704738  0.01908085
:BAN00028:  28    0.674510    0.711539  0.00000000
:BAN00029:  29    0.678924    0.751530  0.00000000
:BAN00030:  30    0.689632    0.751530  0.00000000
:BAN00031:  31    0.714123    0.769303  0.00000000
:BAN00032:  32    0.724181    0.774593  0.00000000
        Energy to separate low and high energystates:   -0.00148


:NOE  : NUMBER OF ELECTRONS          =   58.000

:FER  : F E R M I - ENERGY(TETRAH.M.)=   0.6566516844
:GMA  : POTENTIAL AND CHARGE CUT-OFF  12.00 Ry**.5

:POS001: ATOM    1 X,Y,Z = 0.00000 0.00000 0.00000  MULT= 1  ZZ= 26.000  Fe1       

       LMMAX  5
       LM=   0 0  4 0  4 4  6 0  6 4

:CHA001: TOTAL VALENCE CHARGE INSIDE SPHERE   1 =   4.9748    (RMT=  2.4300 )
:PCS001: PARTIAL CHARGES SPHERE =  1 S,P,D,F,      D-EG,D-T2G 
:QTL001: 0.2255 3.2425 1.4762 0.0228 0.0000 0.0000 0.0000 0.3921 1.0841 0.0000 0.0000 0.0000
        Q-s-low E-s-low   Q-p-low E-p-low   Q-d-low E-d-low   Q-f-low E-f-low
:EPL001:  0.0005 -2.7444    2.9949 -3.1579    0.0012 -2.7401    0.0005 -2.7426
        Q-s-hi  E-s-hi    Q-p-hi  E-p-hi    Q-d-hi  E-d-hi    Q-f-hi  E-f-hi 
:EPH001:  0.2250  0.2814    0.2476  0.4240    1.4750  0.4978    0.0223  0.4714

:POS002: ATOM    2 X,Y,Z = 0.50000 0.00000 0.00000  MULT= 1  ZZ= 26.000  Fe2       

       LMMAX  5
       LM=   0 0  4 0  4 4  6 0  6 4

:CHA002: TOTAL VALENCE CHARGE INSIDE SPHERE   2 =   4.9785    (RMT=  2.4300 )
:PCS002: PARTIAL CHARGES SPHERE =  2 S,P,D,F,      D-EG,D-T2G 
:QTL002: 0.2255 3.2425 1.4799 0.0228 0.0000 0.0000 0.0000 0.3933 1.0866 0.0000 0.0000 0.0000
        Q-s-low E-s-low   Q-p-low E-p-low   Q-d-low E-d-low   Q-f-low E-f-low
:EPL002:  0.0005 -2.7444    2.9949 -3.1583    0.0012 -2.7401    0.0005 -2.7426
        Q-s-hi  E-s-hi    Q-p-hi  E-p-hi    Q-d-hi  E-d-hi    Q-f-hi  E-f-hi 
:EPH002:  0.2250  0.2814    0.2476  0.4240    1.4786  0.4979    0.0223  0.4715

:POS003: ATOM    3 X,Y,Z = 0.25000 0.25000 0.25000  MULT= 2  ZZ= 45.000  Rh1       

       LMMAX  6
       LM=   0 0  4 0  4 4  6 0  6 4 -3 2

:CHA003: TOTAL VALENCE CHARGE INSIDE SPHERE   3 =   6.3140    (RMT=  2.4300 )
:PCS003: PARTIAL CHARGES SPHERE =  3 S,P,D,F,      D-EG,D-T2G 
:QTL003: 0.1854 3.1645 2.9461 0.0148 0.0000 0.0000 0.0000 0.9732 1.9729 0.0000 0.0000 0.0000
        Q-s-low E-s-low   Q-p-low E-p-low   Q-d-low E-d-low   Q-f-low E-f-low
:EPL003:  0.0002 -3.1014    2.9804 -2.7364    0.0004 -3.1086    0.0002 -3.1003
        Q-s-hi  E-s-hi    Q-p-hi  E-p-hi    Q-d-hi  E-d-hi    Q-f-hi  E-f-hi 
:EPH003:  0.1852  0.2996    0.1842  0.4574    2.9457  0.4335    0.0146  0.5089

:CHA  : TOTAL VALENCE CHARGE INSIDE UNIT CELL =      24.863769

:SUM  : SUM OF EIGENVALUES =         -29.795753419


        1.ATOM      Fe1                   5 CORE STATES
:1S 001: 1S                -513.178762893 Ry
:2S 001: 2S                 -59.163453147 Ry
:2PP001: 2P*                -50.850367431 Ry
:2P 001: 2P                 -49.934250775 Ry
:3S 001: 3S                  -5.914031832 Ry

        2.ATOM      Fe2                   5 CORE STATES
:1S 002: 1S                -513.179412756 Ry
:2S 002: 2S                 -59.164077654 Ry
:2PP002: 2P*                -50.850997619 Ry
:2P 002: 2P                 -49.934880401 Ry
:3S 002: 3S                  -5.914473044 Ry

        3.ATOM      Rh1                  10 CORE STATES
:1S 003: 1S               -1691.496792598 Ry
:2S 003: 2S                -244.399127987 Ry
:2PP003: 2P*               -226.206827660 Ry
:2P 003: 2P                -215.577972671 Ry
:3S 003: 3S                 -42.923627046 Ry
:3PP003: 3P*                -35.806303781 Ry
:3P 003: 3P                 -33.977328580 Ry
:3DD003: 3D*                -21.382882366 Ry
:3D 003: 3D                 -21.022149570 Ry
:4S 003: 4S                  -5.158707590 Ry

        1.ATOM      Fe1                   5 CORE STATES
:1S 001: 1S                -513.179327031 Ry
:2S 001: 2S                 -59.046356044 Ry
:2PP001: 2P*                -50.763414475 Ry
:2P 001: 2P                 -49.844732386 Ry
:3S 001: 3S                  -5.648588457 Ry

        2.ATOM      Fe2                   5 CORE STATES
:1S 002: 1S                -513.179976860 Ry
:2S 002: 2S                 -59.046974175 Ry
:2PP002: 2P*                -50.764039922 Ry
:2P 002: 2P                 -49.845357133 Ry
:3S 002: 3S                  -5.649010266 Ry

        3.ATOM      Rh1                  10 CORE STATES
:1S 003: 1S               -1691.497110185 Ry
:2S 003: 2S                -244.384856434 Ry
:2PP003: 2P*               -226.196670419 Ry
:2P 003: 2P                -215.567046991 Ry
:3S 003: 3S                 -42.916634793 Ry
:3PP003: 3P*                -35.798047844 Ry
:3P 003: 3P                 -33.969396931 Ry
:3DD003: 3D*                -21.370055347 Ry
:3D 003: 3D                 -21.009379088 Ry
:4S 003: 4S                  -5.097745507 Ry
:CINT001 Core Integral Atom   1 Up    5.999660 Dn   5.999609 Total  11.999270
:CINT002 Core Integral Atom   2 Up    5.999661 Dn   5.999609 Total  11.999270
:CINT003 Core Integral Atom   3 Up   14.998746 Dn  14.998710 Total  29.997455

       DENSITY AT NUCLEUS
        JATOM        VALENCE       SEMI-CORE          CORE           TOTAL
:RTO001:   1        6.929438        0.000000    15302.757398    15309.686836
:RTO002:   2        6.931083        0.000000    15302.761770    15309.692853
:RTO003:   3       23.020546        0.000000   155315.034701   155338.055247

       HYPERFINE FIELDS FOR THOMSON RADIUS
:HFF001:          198.710           0.000        -386.343        -187.633 (KGAUSS)
:HFF002:          198.830           0.000        -386.388        -187.558 (KGAUSS)
:HFF003:         -232.182           0.000        -280.057        -512.239 (KGAUSS)
     
       CHARGES OF NEW CHARGE DENSITY
:NTO   : INTERSTITIAL     UP =     2.195894 DN =     2.282562 TOT =     4.478456
:NPC   : PW Pseudocharge  UP =     5.724537 DN =     5.008082 TOT =    10.732619
:NTO001: CHARGE SPHERE  1 UP =    14.139614 DN =    10.974390 TOT =    25.114003
:NTO002: CHARGE SPHERE  2 UP =    14.140317 DN =    10.978096 TOT =    25.118413
:NTO003: CHARGE SPHERE  3 UP =    22.328590 DN =    21.312667 TOT =    43.641257

:NEC01: NUCLEAR AND ELECTRONIC CHARGE    142.00000   141.99339
     
       CHARGES OF OLD CHARGE DENSITY
:OTO   : INTERSTITIAL     UP =     2.196327 DN =     2.282227 TOT =     4.478555
:OPC   : PW Pseudocharge  UP =     5.724803 DN =     5.017209 TOT =    10.742012
:OTO001: CHARGE SPHERE  1 UP =    14.137430 DN =    10.979657 TOT =    25.117086
:OTO002: CHARGE SPHERE  2 UP =    14.137379 DN =    10.979386 TOT =    25.116765
:OTO003: CHARGE SPHERE  3 UP =    22.327378 DN =    21.316419 TOT =    43.643797

:NEC02: NUCLEAR AND ELECTRONIC CHARGE    142.00000   142.00000
     
       CONVERGENCE TEST
:DTO001: DIFFERENCE SPHERE  1 UP =  0.0015724 DN =  0.0070801 TOT =  0.0086525
:DTO002: DIFFERENCE SPHERE  2 UP =  0.0028587 DN =  0.0028987 TOT =  0.0057574
:DTO003: DIFFERENCE SPHERE  3 UP =  0.0007686 DN =  0.0039756 TOT =  0.0047442

:DIS  :  CHARGE DISTANCE       ( 0.0070801 for atom    1 spin 2)      0.0119491
 PW Mixed is           49
 
******************************************************
* MULTISECANT MIXING VER9 RELEASE 10.4.0              *
* Standard Mode with controls                        *
* Fixed density scale                                *
* Regularization       1.000E-04                     *
* Trust Upper Limit    5.000E+00                     *
* Max Number of Memory Steps    8                    *
******************************************************
 
:PWTMP   1.1765E+02  4.5917E+02  3.5807E+02
:PLANE:  PW TOTAL      2.3697 DISTAN   4.23E-03  1.79E-01 %
:CHARG:  CLM/ATOM    212.0472 DISTAN   3.48E-03  1.64E-03 %
 
Step History
        DMIX         DMIXT        Red     Pred      Trust     Lambda    MagRel    MagAbs     Beta
  4   4.7825E-02   4.7825E-02  9.19E-01  1.00E+00  1.68E-01  1.36E+00  4.78E-02  6.03E-02  9.94E-01
  5   1.1956E-01   8.9205E-02  8.26E-01  7.70E-01  2.83E-01  5.96E-01  2.24E-01  2.59E-01  1.00E+00
  6   8.9654E-02   8.9654E-02  7.55E-01  8.59E-01  9.47E-01  2.24E-01  3.70E-01  3.54E-01  1.00E+00
  7   2.1970E-01   2.1970E-01  4.92E-01  4.95E-01  1.30E+00  7.18E-01  5.31E-01  3.84E-01  1.00E+00
  8   3.5000E-01   3.5000E-01  5.92E-01  5.23E-01  4.07E+00  2.58E-01  1.09E+00  3.87E-01  1.00E+00
  9   3.5000E-01   3.5000E-01  4.44E-01  4.14E-01  5.76E+00  7.86E-01  4.65E-01  9.77E-02  1.00E+00
 10   3.5000E-01   3.5000E-01  3.31E-01  4.08E-01  7.68E+00  7.46E-01  9.46E-01  8.84E-02  1.00E+00
 11   3.5000E-01   3.5000E-01  6.81E-01  2.29E-01  1.02E+01  7.60E-01  5.12E-01  1.58E-02  9.54E-01
 12   2.2011E-01   2.2011E-01 -1.00E+00  2.82E-01  1.37E+01  1.00E+00  1.82E-01  3.84E-03  9.60E-01
:JACOBIANS    5.584E-01   1.550E+00
  
:NORMS:  1/Froebius, Min, Max, Used   0.1021E+01  0.5867E+00  0.1631E+01  0.1272E+01
:INFO :  Number of Memory Steps    8 Skipping    3
:INFO :  SLambda=    0.7881408849  Max    0.7881408849
:PREDicted Charge, CTotal, PW Trust    1.890E-03   3.711E-03   3.341E-03
:PREDicted DMix, Beta, BLim   7.2488E-02  3.3101E+00  1.2652E+00

Eigenvalues, unscaled except for SY+YY
   #     SY Real        SY Imag          SS             YY         SY+YY Real      SY+YY Imag
   1   5.051292E+00   0.000000E+00   7.053367E+00   4.362171E+00   8.313761E+00   0.000000E+00
   2   9.152812E-01   0.000000E+00   8.823747E-01   1.442393E+00   2.147819E+00   0.000000E+00
   3   4.500091E-01   0.000000E+00   3.354418E-01   9.970067E-01   1.085352E+00   0.000000E+00
   4   1.599604E-01   0.000000E+00   5.027283E-02   7.329153E-01   1.048559E+00   0.000000E+00
   5   7.448052E-02   0.000000E+00   1.346207E-02   4.052093E-01   5.715604E-01   0.000000E+00
   6   1.191523E-02   0.000000E+00   1.758181E-03   5.774676E-02   8.165308E-02   0.000000E+00
   7   2.842115E-05   0.000000E+00   2.715394E-04   2.481759E-03   1.055134E-04   0.000000E+00
   8   8.926009E-04   0.000000E+00   1.479065E-05   7.621021E-05   3.249636E-03   0.000000E+00
 
:INFO :  Singular value  8.365E+00 Weight  1.000E+00 Projection  3.055E-03
:INFO :  Singular value  2.137E+00 Weight  1.000E+00 Projection -1.884E-03
:INFO :  Singular value  1.089E+00 Weight  1.000E+00 Projection -4.397E-03
:INFO :  Singular value  1.048E+00 Weight  1.000E+00 Projection  5.773E-04
:INFO :  Singular value  5.698E-01 Weight  1.000E+00 Projection  3.491E-03
:INFO :  Singular value  8.165E-02 Weight  1.000E+00 Projection  2.383E-02
:INFO :  Singular value  3.249E-03 Weight  9.823E-01 Projection  3.295E-02
:INFO :  Singular value  1.055E-04 Weight  5.523E-02 Projection  1.620E-02
:RANK :  ACTIVE   7.04/8  =  87.97 % ; YY RANK   7.00/8  =  87.49 %
 
:BLIM :  VZERO Control Off
:TRUST:  Step 1.50E+01  Charge 5.92E-02 (e) CTO  1.55E-01 (e) PW  2.17E-01 (e)
:DIRM :  MEMORY  8/8  SCALE   1.000 RED  0.51 PRED  0.28 NEXT  0.41 
:TRAVE:  Charge 3.41E-03 (e) CTO  7.85E-03 (e) PW  1.10E-02 (e)
:DIRP :  |MSR1|= 1.340E-03 |PRATT|= 2.116E-03 ANGLE=  98.8 DEGREES
:DIRQ :  |MSR1|= 1.146E-02 |PRATT|= 1.043E-02 ANGLE=  35.2 DEGREES
:DIRT :  |MSR1|= 1.154E-02 |PRATT|= 1.064E-02 ANGLE=  37.7 DEGREES
:MIX  :   MSE1   REGULARIZATION:  4.36E-04 GREED: 0.17568  Newton 1.00  1.0842                
     
       CHARGES OF MIXED CHARGE DENSITY
:CTO   : INTERSTITIAL     UP =     2.195292 DN =     2.285971 TOT =     4.481263
:CPC   : PW Pseudocharge  UP =     5.723249 DN =     5.016496 TOT =    10.739745
:CTO001: CHARGE SPHERE  1 UP =    14.140523 DN =    10.975666 TOT =    25.116188
:CTO002: CHARGE SPHERE  2 UP =    14.140514 DN =    10.975620 TOT =    25.116135
:CTO003: CHARGE SPHERE  3 UP =    22.328672 DN =    21.314535 TOT =    43.643207

       SPIN MAGNETIC MOMENTS OF MIXED CHARGE DENSITY
:MMINT:  MAGNETIC MOMENT IN INTERSTITIAL  =   -0.09068
:MMI001: MAGNETIC MOMENT IN SPHERE   1    =    3.16486
:MMI002: MAGNETIC MOMENT IN SPHERE   2    =    3.16489
:MMI003: MAGNETIC MOMENT IN SPHERE   3    =    1.01414
:MMTOT:  SPIN MAGNETIC MOMENT IN CELL     =    8.26735

:NEC03: NUCLEAR AND ELECTRONIC CHARGE    142.00000   142.00000

PW CHANGE     H    K    L      Current       Change    Residue
:PUP001:      0    0    0  2.21144833E-02 -7.230E-06  3.072E-05
:PUP002:     -1   -1   -1  2.48175360E-09 -1.191E-08 -2.136E-07
:PUP003:      0    0   -2 -5.86207171E-03  1.032E-05 -3.351E-06
:PUP004:      0   -2   -2  2.69144208E-03 -2.259E-05  8.820E-05
:PUP005:     -1   -1   -3  2.02326062E-08 -1.065E-07 -1.874E-06
:PUP006:     -2   -2   -2  2.59870689E-03  1.495E-05 -1.092E-05
:PUP007:      0    0   -4 -6.48953429E-03 -1.401E-05  3.314E-05
:PUP008:     -1   -3   -3  4.33024152E-09 -2.425E-08 -4.316E-07
:PUP009:      0   -2   -4  6.29816229E-03  2.566E-05 -2.766E-05
:PUP010:     -2   -2   -4 -1.27411989E-02 -4.193E-05  8.914E-05
:PUP011:     -3   -3   -3  4.91090223E-10 -2.138E-09 -3.746E-08
:PUP012:     -1   -1   -5 -1.81396036E-09  9.059E-09  1.571E-07
  
:PDN001:      0    0    0  2.03939449E-02  8.464E-06  5.519E-06
:PDN002:     -1   -1   -1  8.36046760E-08 -4.432E-07 -7.815E-06
:PDN003:      0    0   -2 -7.83990853E-03  4.287E-06 -1.399E-06
:PDN004:      0   -2   -2 -3.16627783E-03 -9.685E-05 -4.347E-05
:PDN005:     -1   -1   -3 -4.62266036E-08  2.716E-07  4.775E-06
:PDN006:     -2   -2   -2  2.73378574E-03  6.418E-06 -1.673E-05
:PDN007:      0    0   -4 -5.94844190E-03 -1.785E-05  1.277E-05
:PDN008:     -1   -3   -3 -4.30752074E-08  1.919E-07  3.401E-06
:PDN009:      0   -2   -4  6.96161056E-03 -7.607E-06 -4.166E-05
:PDN010:     -2   -2   -4 -6.42500098E-03  1.294E-05  9.877E-05
:PDN011:     -3   -3   -3 -1.14847015E-09 -6.003E-10 -8.578E-09
:PDN012:     -1   -1   -5 -1.57073727E-08  9.413E-08  1.657E-06

:ENE  : ********** TOTAL ENERGY IN Ry =       -24232.23020993

