
:LABEL1: Calculations in /home/cmueller/wien/FZU/src/FeRh/FFM/500k
:LABEL2: on cv036 at Tue Mar 11 05:08:23 PM CET 2025
:LABEL3: using WIEN2k_19.1 (Release 25/6/2019) in /home/cmueller/WIENROOT
:LABEL4: using the command: run_lapw
 Flat Integration
 New Mode for Coulomb Integral
 Consistent 3/8+Simpson combinations
 Extension of core to zero
 LDM version in phi
 Fifth-order quadrature in outwin


            ---------
:ITE001:  1. ITERATION
            ---------

:NATO :    3 INDEPENDENT AND    4 TOTAL ATOMS IN UNITCELL
       SUBSTANCE: FeRh                                                        

       LATTICE                      = F   
:POT  : POTENTIAL OPTION EX_PBE EC_PBE VX_PBE VC_PBE
:LAT  : LATTICE CONSTANTS= 11.27222 11.27222 11.27222    1.571    1.571    1.571
:VOL  : UNIT CELL VOLUME =     358.07036
       MODE OF CALCULATION IS       = RELA
       NON-SPINPOLARIZED CALCULATION
:IFFT  : FFT-parameters:   90   90   90 Factor: 2.00


   CONVERGENCE PARAMETER FOR PSEUDOCHARGE: NCON=  9
   MAXIMAL VALUE OF RMT(JATOM)*ABSK(NKK) : RK  =29.05063


:VKCOUL :  VK-COUL convergence: 0.126E-05
       ATOMNUMBER=  1 Fe1        VCOUL-ZERO =  0.65836E+00
       ATOMNUMBER=  2 Fe2        VCOUL-ZERO =  0.65836E+00
       ATOMNUMBER=  3 Rh1        VCOUL-ZERO =  0.62973E+00
:FIT001: LUSE= 13 SIGMA OF V-XC FIT FOR ATOM  1  0.5273943E-02
:FIT001: LUSE= 13 SIGMA OF V-XC FIT FOR ATOM  1  0.5273943E-02
:FIT002: LUSE= 13 SIGMA OF V-XC FIT FOR ATOM  2  0.5273943E-02
:FIT002: LUSE= 13 SIGMA OF V-XC FIT FOR ATOM  2  0.5273943E-02
:FIT003: LUSE= 13 SIGMA OF V-XC FIT FOR ATOM  3  0.1324738E-02
:FIT003: LUSE= 13 SIGMA OF V-XC FIT FOR ATOM  3  0.1324738E-02
:DEN  : DENSITY INTEGRAL  =         -9889.77809320   (Ry)
       ELS_POTENTIAL_AT Z=0 and Z=0.5:  -0.23886  -0.23886
       ELS_POTENTIAL_AT Y=0 and Y=0.5:   0.00000   0.00000
:VZERO:v0,v0c,v0x  -0.98015  -0.23886  -0.74129 v5,v5c,v5x  -0.98015  -0.23886  -0.74129
:VZERY:v0,v0c,v0x  -0.85926   0.00000  -0.85926 v5,v5c,v5x  -0.85926   0.00000  -0.85926
:VZERX:v0,v0c,v0x  -0.85926   0.00000  -0.85926 v5,v5c,v5x  -0.85926   0.00000  -0.85926
:LMAX-WF:   10   Non-Spherical LMAX:   4

          ATOMIC SPHERE DEPENDENT PARAMETERS FOR ATOM  Fe1       
:e__0001: OVERALL ENERGY PARAMETER IS    0.3000
          OVERALL BASIS SET ON ATOM IS LAPW
:E1_0001: E( 1)=    0.3000
             APW+lo
:E1_0001: E( 1)=   -3.0753   E(BOTTOM)=   -3.109   E(TOP)=   -3.042  1  2   186
             LOCAL ORBITAL
:E2_0001: E( 2)=    0.7000   E(BOTTOM)=    0.450   E(TOP)=    0.950  0  1   138
             APW+lo
:E0_0001: E( 0)=    0.3000
             APW+lo

          ATOMIC SPHERE DEPENDENT PARAMETERS FOR ATOM  Fe2       
:e__0002: OVERALL ENERGY PARAMETER IS    0.3000
          OVERALL BASIS SET ON ATOM IS LAPW
:E1_0002: E( 1)=    0.3000
             APW+lo
:E1_0002: E( 1)=   -3.0753   E(BOTTOM)=   -3.109   E(TOP)=   -3.042  1  2   186
             LOCAL ORBITAL
:E2_0002: E( 2)=    0.7000   E(BOTTOM)=    0.450   E(TOP)=    0.950  0  1   138
             APW+lo
:E0_0002: E( 0)=    0.3000
             APW+lo

          ATOMIC SPHERE DEPENDENT PARAMETERS FOR ATOM  Rh1       
:e__0003: OVERALL ENERGY PARAMETER IS    0.3000
          OVERALL BASIS SET ON ATOM IS LAPW
:E1_0003: E( 1)=    0.3000
             APW+lo
:E1_0003: E( 1)=   -2.5776   E(BOTTOM)=   -2.678   E(TOP)=   -2.478  2  3   175
             LOCAL ORBITAL
:E2_0003: E( 2)=    0.3000   E(BOTTOM)=    0.218   E(TOP)= -200.000  1 -1    94
             APW+lo
:E0_0003: E( 0)=    0.3000
             APW+lo

       K=   0.00000   0.00000   0.00000            1
:RKM  : MATRIX SIZE   185LOs:  48  RKM= 6.64  WEIGHT= 1.00  PGR:    
       EIGENVALUES ARE:
:EIG00001:      -3.0692391   -3.0692391   -3.0692391   -3.0672932   -3.0672932
:EIG00006:      -3.0672932   -2.5604539   -2.5604539   -2.5604539   -2.5525808
:EIG00011:      -2.5525808   -2.5525808    0.1348649    0.4049680    0.4049680
:EIG00016:       0.4721518    0.4721518    0.4721518    0.6178376    0.6178376
:EIG00021:       0.6178376    0.6432026    0.6432026    0.6432026    0.7910283
:EIG00026:       0.7910283    0.8158963    0.8158963    0.8314523    0.8314523
:EIG00031:       0.8841906    0.8841906    0.8841906    1.3267377    1.3964005
:EIG00036:       1.3964005    1.3964005    1.3971498    1.3971498    1.3971498
:EIG00041:       1.5207242    1.5207242    1.5207242    1.5592513
       ********************************************************

:KPT   :      NUMBER OF K-POINTS:    20
:GAP (global)   :    0.0    Ry =     0.0   eV (metal)
         Bandranges (emin - emax) and occupancy:
:BAN00021:  21    0.567939    0.637517  2.00000000
:BAN00022:  22    0.577948    0.677946  2.00000000
:BAN00023:  23    0.577948    0.723846  2.00000000
:BAN00024:  24    0.600799    0.723846  2.00000000
:BAN00025:  25    0.709413    0.791028  2.00000000
:BAN00026:  26    0.728599    0.798619  2.00041949
:BAN00027:  27    0.748846    0.815896  1.95082931
:BAN00028:  28    0.770284    0.815896  1.91550355
:BAN00029:  29    0.784570    0.831452  1.67093894
:BAN00030:  30    0.791194    0.834926  0.45656329
:BAN00031:  31    0.808604    0.884191  0.00574542
:BAN00032:  32    0.822287    0.884191  0.00000000
:BAN00033:  33    0.825824    0.900895  0.00000000
:BAN00034:  34    0.876362    1.326738  0.00000000
:BAN00035:  35    0.906834    1.396401  0.00000000
:BAN00036:  36    0.911950    1.396401  0.00000000
        Energy to separate low and high energystates:    0.08486


:NOE  : NUMBER OF ELECTRONS          =   58.000

:FER  : F E R M I - ENERGY(TETRAH.M.)=   0.8086846988
:GMA  : POTENTIAL AND CHARGE CUT-OFF  12.00 Ry**.5

:POS001: ATOM    1 X,Y,Z = 0.00000 0.00000 0.00000  MULT= 1  ZZ= 26.000  Fe1       

       LMMAX  5
       LM=   0 0  4 0  4 4  6 0  6 4

:CHA001: TOTAL VALENCE CHARGE INSIDE SPHERE   1 =  13.4129    (RMT=  2.4300 )
:PCS001: PARTIAL CHARGES SPHERE =  1 S,P,D,F,      D-EG,D-T2G 
:QTL001: 0.4807 6.5454 6.3126 0.0555 0.0000 0.0000 0.0000 2.5027 3.8099 0.0000 0.0000 0.0000
        Q-s-low E-s-low   Q-p-low E-p-low   Q-d-low E-d-low   Q-f-low E-f-low
:EPL001:  0.0011 -2.5659    5.9898 -3.0680    0.0027 -2.5615    0.0011 -2.5620
        Q-s-hi  E-s-hi    Q-p-hi  E-p-hi    Q-d-hi  E-d-hi    Q-f-hi  E-f-hi 
:EPH001:  0.4795  0.3804    0.5556  0.5414    6.3099  0.6743    0.0544  0.6242

:POS002: ATOM    2 X,Y,Z = 0.50000 0.00000 0.00000  MULT= 1  ZZ= 26.000  Fe2       

       LMMAX  5
       LM=   0 0  4 0  4 4  6 0  6 4

:CHA002: TOTAL VALENCE CHARGE INSIDE SPHERE   2 =  13.4129    (RMT=  2.4300 )
:PCS002: PARTIAL CHARGES SPHERE =  2 S,P,D,F,      D-EG,D-T2G 
:QTL002: 0.4807 6.5454 6.3126 0.0555 0.0000 0.0000 0.0000 2.5027 3.8099 0.0000 0.0000 0.0000
        Q-s-low E-s-low   Q-p-low E-p-low   Q-d-low E-d-low   Q-f-low E-f-low
:EPL002:  0.0011 -2.5659    5.9898 -3.0680    0.0027 -2.5615    0.0011 -2.5620
        Q-s-hi  E-s-hi    Q-p-hi  E-p-hi    Q-d-hi  E-d-hi    Q-f-hi  E-f-hi 
:EPH002:  0.4795  0.3804    0.5556  0.5414    6.3099  0.6743    0.0544  0.6242

:POS003: ATOM    3 X,Y,Z = 0.25000 0.25000 0.25000  MULT= 2  ZZ= 45.000  Rh1       

       LMMAX  6
       LM=   0 0  4 0  4 4  6 0  6 4 -3 2

:CHA003: TOTAL VALENCE CHARGE INSIDE SPHERE   3 =  13.0599    (RMT=  2.4300 )
:PCS003: PARTIAL CHARGES SPHERE =  3 S,P,D,F,      D-EG,D-T2G 
:QTL003: 0.3764 6.3591 6.2635 0.0484 0.0000 0.0000 0.0000 2.3559 3.9076 0.0000 0.0000 0.0000
        Q-s-low E-s-low   Q-p-low E-p-low   Q-d-low E-d-low   Q-f-low E-f-low
:EPL003:  0.0003 -2.9898    5.9573 -2.5572    0.0008 -3.0011    0.0004 -2.9979
        Q-s-hi  E-s-hi    Q-p-hi  E-p-hi    Q-d-hi  E-d-hi    Q-f-hi  E-f-hi 
:EPH003:  0.3761  0.3990    0.4018  0.5651    6.2627  0.5910    0.0481  0.6595

:CHA  : TOTAL VALENCE CHARGE INSIDE UNIT CELL =      58.000000

:SUM  : SUM OF EIGENVALUES =         -47.129743075



   QTL-B VALUE .EQ.    2.85285   in Band of energy    0.82254   ATOM=    3   L=  2
    Most likely no ghostbands, but adjust Energy-parameters for this ATOM and L


:WARN : QTL-B value eq.   2.85 in Band of energy   0.82254  ATOM=    3  L=  2
:WARN : You should change the E-parameter for this atom and L-value in case.in1 (or try the -in1new switch)

        1.ATOM      Fe1                   5 CORE STATES
:1S 001: 1S                -512.917891279 Ry
:2S 001: 2S                 -58.826866001 Ry
:2PP001: 2P*                -50.530155331 Ry
:2P 001: 2P                 -49.612674471 Ry
:3S 001: 3S                  -5.554477635 Ry

        2.ATOM      Fe2                   5 CORE STATES
:1S 002: 1S                -512.917891279 Ry
:2S 002: 2S                 -58.826866001 Ry
:2PP002: 2P*                -50.530155331 Ry
:2P 002: 2P                 -49.612674471 Ry
:3S 002: 3S                  -5.554477635 Ry

        3.ATOM      Rh1                  10 CORE STATES
:1S 003: 1S               -1691.217358224 Ry
:2S 003: 2S                -244.109674305 Ry
:2PP003: 2P*               -225.919343956 Ry
:2P 003: 2P                -215.290136273 Ry
:3S 003: 3S                 -42.651986868 Ry
:3PP003: 3P*                -35.533746793 Ry
:3P 003: 3P                 -33.705449364 Ry
:3DD003: 3D*                -21.106761817 Ry
:3D 003: 3D                 -20.746244980 Ry
:4S 003: 4S                  -4.904518397 Ry
:CINT001 Core Integral Atom   1   11.999197
:CINT002 Core Integral Atom   2   11.999197
:CINT003 Core Integral Atom   3   29.997225

       DENSITY AT NUCLEUS
        JATOM        VALENCE       SEMI-CORE          CORE           TOTAL
:RTO001:   1        7.114657        0.000000    15301.515563    15308.630220
:RTO002:   2        7.114657        0.000000    15301.515563    15308.630220
:RTO003:   3       24.631585        0.000000   155310.014376   155334.645962
     
       CHARGES OF NEW CHARGE DENSITY
:NTO   : INTERSTITIAL CHARGE =     5.054354
:NPC   : PW Pseudocharge     =    11.602974
:NTO001: CHARGE SPHERE  1    =    25.412100
:NTO002: CHARGE SPHERE  2    =    25.412100
:NTO003: CHARGE SPHERE  3    =    43.057113

:NEC01: NUCLEAR AND ELECTRONIC CHARGE    142.00000   141.99278
     
       CHARGES OF OLD CHARGE DENSITY
:OTO   : INTERSTITIAL CHARGE =     3.805005
:OPC   : PW Pseudocharge     =    18.875488
:OTO001: CHARGE SPHERE  1    =    25.256897
:OTO002: CHARGE SPHERE  2    =    25.256897
:OTO003: CHARGE SPHERE  3    =    43.842573

:NEC02: NUCLEAR AND ELECTRONIC CHARGE    142.00000   142.00395
     
       CONVERGENCE TEST
:DTO001: DIFFERENCE IN SPHERE  1 =  0.4625407
:DTO002: DIFFERENCE IN SPHERE  2 =  0.4625408
:DTO003: DIFFERENCE IN SPHERE  3 =  0.9168487

:DIS  :  CHARGE DISTANCE       ( 0.9168487 for atom    3 spin 1)      0.6896947
 PW Mixed is           49
 
******************************************************
* MULTISECANT MIXING VER9 RELEASE 10.4.0              *
* Standard Mode with controls                        *
* Fixed density scale                                *
* Regularization       1.000E-04                     *
* Trust Upper Limit    5.000E+00                     *
* Max Number of Memory Steps    8                    *
******************************************************
 
:PWTMP   1.1765E+02  4.5917E+02  3.5807E+02
:PLANE:  PW TOTAL      2.9797 DISTAN   1.87E+00  6.26E+01 %
:CHARG:  CLM/ATOM    299.8813 DISTAN   4.90E-01  1.63E-01 %
 
Step History
        DMIX         DMIXT        Red     Pred      Trust     Lambda    MagRel    MagAbs     Beta
  1   3.5000E-02   3.5000E-02 -1.00E+00  1.00E+00 -1.00E+01  1.00E+00  3.50E-02  3.50E-02  1.00E+00
:INFO :  Note, Pratt in use
:TRUST:  Step 3.75E-02  Charge 7.50E-02 (e) CTO  2.50E-01 (e) PW  3.50E-01 (e)
:DIRM :  MEMORY  0/ 8 SCALE   1.000
Performing Pseudo Compensation
Final Pseudo Compensation Rescaling     9.98224E-01
:MIX  :   PRATT  REGULARIZATION:  1.00E-04 GREED: 0.02500                  
     
       CHARGES OF MIXED CHARGE DENSITY
:CTO   : INTERSTITIAL CHARGE =     3.832572
:CPC   : PW Pseudocharge     =    13.598860
:CTO001: CHARGE SPHERE  1    =    25.260777
:CTO002: CHARGE SPHERE  2    =    25.260777
:CTO003: CHARGE SPHERE  3    =    43.822937

:NEC03: NUCLEAR AND ELECTRONIC CHARGE    142.00000   142.00000

PW CHANGE     H    K    L      Current       Change    Residue
:PTO001:      0    0    0  4.86815834E-02 -1.459E-02 -1.669E-02
:PTO003:      0    0   -2 -2.51054771E-02  2.293E-02  3.721E-02
:PTO004:      0   -2   -2  3.52755455E-02 -1.012E-01 -1.408E-01
:PTO006:     -2   -2   -2  1.35260865E-03  1.510E-02  1.717E-02
:PTO007:      0    0   -4 -1.19728075E-02 -2.658E-02 -2.720E-02
:PTO009:      0   -2   -4  1.81368132E-02  1.937E-02  1.132E-02
:PTO010:     -2   -2   -4 -4.41864636E-02 -4.926E-02 -2.496E-02
:PTO013:      0   -4   -4 -1.18903202E-02 -9.008E-03  1.796E-03
:PTO015:     -2   -4   -4  5.95990164E-03 -2.447E-04 -5.064E-03
:PTO016:      0    0   -6  1.49905570E-03 -5.209E-05 -9.028E-04
:PTO017:      0   -2   -6 -8.16509418E-03 -2.825E-03  5.691E-03
:PTO019:     -2   -2   -6  1.48819387E-03 -2.418E-03 -3.546E-03

:ENE  : *WARNING** TOTAL ENERGY IN Ry =       -24232.24702659

 Flat Integration
 New Mode for Coulomb Integral
 Consistent 3/8+Simpson combinations
 Extension of core to zero
 LDM version in phi
 Fifth-order quadrature in outwin


            ---------
:ITE002:  2. ITERATION
            ---------

:NATO :    3 INDEPENDENT AND    4 TOTAL ATOMS IN UNITCELL
       SUBSTANCE: FeRh                                                        

       LATTICE                      = F   
:POT  : POTENTIAL OPTION EX_PBE EC_PBE VX_PBE VC_PBE
:LAT  : LATTICE CONSTANTS= 11.27222 11.27222 11.27222    1.571    1.571    1.571
:VOL  : UNIT CELL VOLUME =     358.07036
       MODE OF CALCULATION IS       = RELA
       NON-SPINPOLARIZED CALCULATION
:IFFT  : FFT-parameters:   90   90   90 Factor: 2.00


   CONVERGENCE PARAMETER FOR PSEUDOCHARGE: NCON=  9
   MAXIMAL VALUE OF RMT(JATOM)*ABSK(NKK) : RK  =29.05063


:VKCOUL :  VK-COUL convergence: 0.476E-07
       ATOMNUMBER=  1 Fe1        VCOUL-ZERO =  0.63034E+00
       ATOMNUMBER=  2 Fe2        VCOUL-ZERO =  0.63034E+00
       ATOMNUMBER=  3 Rh1        VCOUL-ZERO =  0.59949E+00
:FIT001: LUSE= 13 SIGMA OF V-XC FIT FOR ATOM  1  0.5082128E-02
:FIT001: LUSE= 13 SIGMA OF V-XC FIT FOR ATOM  1  0.5082128E-02
:FIT002: LUSE= 13 SIGMA OF V-XC FIT FOR ATOM  2  0.5082128E-02
:FIT002: LUSE= 13 SIGMA OF V-XC FIT FOR ATOM  2  0.5082128E-02
:FIT003: LUSE= 13 SIGMA OF V-XC FIT FOR ATOM  3  0.1207190E-02
:FIT003: LUSE= 13 SIGMA OF V-XC FIT FOR ATOM  3  0.1207190E-02
:DEN  : DENSITY INTEGRAL  =         -9883.03429996   (Ry)
       ELS_POTENTIAL_AT Z=0 and Z=0.5:  -0.21760  -0.21760
       ELS_POTENTIAL_AT Y=0 and Y=0.5:   0.00000   0.00000
:VZERO:v0,v0c,v0x  -0.85062  -0.21760  -0.63302 v5,v5c,v5x  -0.85062  -0.21760  -0.63302
:VZERY:v0,v0c,v0x  -0.81396   0.00000  -0.81396 v5,v5c,v5x  -0.81396   0.00000  -0.81396
:VZERX:v0,v0c,v0x  -0.81396   0.00000  -0.81396 v5,v5c,v5x  -0.81396   0.00000  -0.81396
:LMAX-WF:   10   Non-Spherical LMAX:   4

          ATOMIC SPHERE DEPENDENT PARAMETERS FOR ATOM  Fe1       
:e__0001: OVERALL ENERGY PARAMETER IS    0.5000
          OVERALL BASIS SET ON ATOM IS LAPW
:E1_0001: E( 1)=    0.5000
             APW+lo
:E1_0001: E( 1)=   -3.1101   E(BOTTOM)=   -3.143   E(TOP)=   -3.077  1  2   187
             LOCAL ORBITAL
:E2_0001: E( 2)=    0.6666   E(BOTTOM)=    0.418   E(TOP)=    0.915  0  1   123
             APW+lo
:E0_0001: E( 0)=    0.5000
             APW+lo

          ATOMIC SPHERE DEPENDENT PARAMETERS FOR ATOM  Fe2       
:e__0002: OVERALL ENERGY PARAMETER IS    0.5000
          OVERALL BASIS SET ON ATOM IS LAPW
:E1_0002: E( 1)=    0.5000
             APW+lo
:E1_0002: E( 1)=   -3.1101   E(BOTTOM)=   -3.143   E(TOP)=   -3.077  1  2   187
             LOCAL ORBITAL
:E2_0002: E( 2)=    0.6666   E(BOTTOM)=    0.418   E(TOP)=    0.915  0  1   123
             APW+lo
:E0_0002: E( 0)=    0.5000
             APW+lo

          ATOMIC SPHERE DEPENDENT PARAMETERS FOR ATOM  Rh1       
:e__0003: OVERALL ENERGY PARAMETER IS    0.5000
          OVERALL BASIS SET ON ATOM IS LAPW
:E1_0003: E( 1)=    0.5000
             APW+lo
:E1_0003: E( 1)=   -2.6252   E(BOTTOM)=   -2.724   E(TOP)=   -2.526  2  3   169
             LOCAL ORBITAL
:E2_0003: E( 2)=    0.5000   E(BOTTOM)=    0.178   E(TOP)= -200.000  1 -1    92
             APW+lo
:E0_0003: E( 0)=    0.5000
             APW+lo

       K=   0.00000   0.00000   0.00000            1
:RKM  : MATRIX SIZE   185LOs:  48  RKM= 6.64  WEIGHT= 1.00  PGR:    
       EIGENVALUES ARE:
:EIG00001:      -3.1039688   -3.1039688   -3.1039688   -3.1020931   -3.1020931
:EIG00006:      -3.1020931   -2.6080872   -2.6080872   -2.6080872   -2.6003185
:EIG00011:      -2.6003185   -2.6003185    0.1037450    0.3686636    0.3686636
:EIG00016:       0.4345264    0.4345264    0.4345264    0.5849585    0.5849585
:EIG00021:       0.5849585    0.6046829    0.6046829    0.6046829    0.7540316
:EIG00026:       0.7540316    0.7821212    0.7821212    0.7859965    0.7859965
:EIG00031:       0.8448775    0.8448775    0.8448775    1.2954584    1.3634987
:EIG00036:       1.3634987    1.3634987    1.3642711    1.3642711    1.3642711
:EIG00041:       1.4740750    1.4740750    1.4740750    1.5234203    2.0351170
:EIG00046:       2.0351170    2.1068187    2.1855885    2.1855885    2.1855885
 
       ********************************************************

:KPT   :      NUMBER OF K-POINTS:    20
:GAP (global)   :    0.0    Ry =     0.0   eV (metal)
         Bandranges (emin - emax) and occupancy:
:BAN00021:  21    0.531276    0.598504  2.00000000
:BAN00022:  22    0.539895    0.644717  2.00000000
:BAN00023:  23    0.539895    0.687764  2.00000000
:BAN00024:  24    0.563259    0.690019  2.00000000
:BAN00025:  25    0.673503    0.754032  2.00000000
:BAN00026:  26    0.695841    0.761471  2.00057706
:BAN00027:  27    0.713689    0.782121  1.94266935
:BAN00028:  28    0.733768    0.782121  1.91910595
:BAN00029:  29    0.747863    0.792637  1.66497147
:BAN00030:  30    0.754673    0.796589  0.46482849
:BAN00031:  31    0.771101    0.844877  0.00784768
:BAN00032:  32    0.777740    0.844877  0.00000000
:BAN00033:  33    0.788504    0.861629  0.00000000
:BAN00034:  34    0.838585    1.295458  0.00000000
:BAN00035:  35    0.866001    1.363499  0.00000000
:BAN00036:  36    0.872655    1.363499  0.00000000
        Energy to separate low and high energystates:    0.05375


:NOE  : NUMBER OF ELECTRONS          =   58.000

:FER  : F E R M I - ENERGY(TETRAH.M.)=   0.7715680071
:GMA  : POTENTIAL AND CHARGE CUT-OFF  12.00 Ry**.5

:POS001: ATOM    1 X,Y,Z = 0.00000 0.00000 0.00000  MULT= 1  ZZ= 26.000  Fe1       

       LMMAX  5
       LM=   0 0  4 0  4 4  6 0  6 4

:CHA001: TOTAL VALENCE CHARGE INSIDE SPHERE   1 =  13.2889    (RMT=  2.4300 )
:PCS001: PARTIAL CHARGES SPHERE =  1 S,P,D,F,      D-EG,D-T2G 
:QTL001: 0.4770 6.5354 6.2028 0.0548 0.0000 0.0000 0.0000 2.4187 3.7841 0.0000 0.0000 0.0000
        Q-s-low E-s-low   Q-p-low E-p-low   Q-d-low E-d-low   Q-f-low E-f-low
:EPL001:  0.0011 -2.6135    5.9898 -3.1027    0.0027 -2.6091    0.0011 -2.6095
        Q-s-hi  E-s-hi    Q-p-hi  E-p-hi    Q-d-hi  E-d-hi    Q-f-hi  E-f-hi 
:EPH001:  0.4759  0.3472    0.5457  0.5053    6.2001  0.6392    0.0536  0.5848

:POS002: ATOM    2 X,Y,Z = 0.50000 0.00000 0.00000  MULT= 1  ZZ= 26.000  Fe2       

       LMMAX  5
       LM=   0 0  4 0  4 4  6 0  6 4

:CHA002: TOTAL VALENCE CHARGE INSIDE SPHERE   2 =  13.2889    (RMT=  2.4300 )
:PCS002: PARTIAL CHARGES SPHERE =  2 S,P,D,F,      D-EG,D-T2G 
:QTL002: 0.4770 6.5354 6.2028 0.0548 0.0000 0.0000 0.0000 2.4187 3.7841 0.0000 0.0000 0.0000
        Q-s-low E-s-low   Q-p-low E-p-low   Q-d-low E-d-low   Q-f-low E-f-low
:EPL002:  0.0011 -2.6135    5.9898 -3.1027    0.0027 -2.6091    0.0011 -2.6095
        Q-s-hi  E-s-hi    Q-p-hi  E-p-hi    Q-d-hi  E-d-hi    Q-f-hi  E-f-hi 
:EPH002:  0.4759  0.3472    0.5457  0.5053    6.2001  0.6392    0.0536  0.5848

:POS003: ATOM    3 X,Y,Z = 0.25000 0.25000 0.25000  MULT= 2  ZZ= 45.000  Rh1       

       LMMAX  6
       LM=   0 0  4 0  4 4  6 0  6 4 -3 2

:CHA003: TOTAL VALENCE CHARGE INSIDE SPHERE   3 =  13.2081    (RMT=  2.4300 )
:PCS003: PARTIAL CHARGES SPHERE =  3 S,P,D,F,      D-EG,D-T2G 
:QTL003: 0.3765 6.3564 6.4151 0.0479 0.0000 0.0000 0.0000 2.4515 3.9636 0.0000 0.0000 0.0000
        Q-s-low E-s-low   Q-p-low E-p-low   Q-d-low E-d-low   Q-f-low E-f-low
:EPL003:  0.0003 -3.0282    5.9578 -2.6048    0.0008 -3.0388    0.0004 -3.0359
        Q-s-hi  E-s-hi    Q-p-hi  E-p-hi    Q-d-hi  E-d-hi    Q-f-hi  E-f-hi 
:EPH003:  0.3762  0.3665    0.3986  0.5318    6.4143  0.5537    0.0475  0.6250

:CHA  : TOTAL VALENCE CHARGE INSIDE UNIT CELL =      58.000000

:SUM  : SUM OF EIGENVALUES =         -49.351817819


        1.ATOM      Fe1                   5 CORE STATES
:1S 001: 1S                -512.958736125 Ry
:2S 001: 2S                 -58.867206143 Ry
:2PP001: 2P*                -50.570642136 Ry
:2P 001: 2P                 -49.653146369 Ry
:3S 001: 3S                  -5.589660568 Ry

        2.ATOM      Fe2                   5 CORE STATES
:1S 002: 1S                -512.958736131 Ry
:2S 002: 2S                 -58.867206148 Ry
:2PP002: 2P*                -50.570642141 Ry
:2P 002: 2P                 -49.653146374 Ry
:3S 002: 3S                  -5.589660572 Ry

        3.ATOM      Rh1                  10 CORE STATES
:1S 003: 1S               -1691.280560431 Ry
:2S 003: 2S                -244.171903355 Ry
:2PP003: 2P*               -225.981859536 Ry
:2P 003: 2P                -215.352588334 Ry
:3S 003: 3S                 -42.709906011 Ry
:3PP003: 3P*                -35.591784392 Ry
:3P 003: 3P                 -33.763329875 Ry
:3DD003: 3D*                -21.165110136 Ry
:3D 003: 3D                 -20.804538617 Ry
:4S 003: 4S                  -4.953838944 Ry
:CINT001 Core Integral Atom   1   11.999200
:CINT002 Core Integral Atom   2   11.999200
:CINT003 Core Integral Atom   3   29.997255

       DENSITY AT NUCLEUS
        JATOM        VALENCE       SEMI-CORE          CORE           TOTAL
:RTO001:   1        7.043933        0.000000    15301.628221    15308.672155
:RTO002:   2        7.043933        0.000000    15301.628221    15308.672155
:RTO003:   3       24.614626        0.000000   155310.862785   155335.477411
     
       CHARGES OF NEW CHARGE DENSITY
:NTO   : INTERSTITIAL CHARGE =     5.005903
:NPC   : PW Pseudocharge     =    11.555370
:NTO001: CHARGE SPHERE  1    =    25.288119
:NTO002: CHARGE SPHERE  2    =    25.288119
:NTO003: CHARGE SPHERE  3    =    43.205352

:NEC01: NUCLEAR AND ELECTRONIC CHARGE    142.00000   141.99285
     
       CHARGES OF OLD CHARGE DENSITY
:OTO   : INTERSTITIAL CHARGE =     3.832572
:OPC   : PW Pseudocharge     =    13.598860
:OTO001: CHARGE SPHERE  1    =    25.260777
:OTO002: CHARGE SPHERE  2    =    25.260777
:OTO003: CHARGE SPHERE  3    =    43.822937

:NEC02: NUCLEAR AND ELECTRONIC CHARGE    142.00000   142.00000
     
       CONVERGENCE TEST
:DTO001: DIFFERENCE IN SPHERE  1 =  0.5366116
:DTO002: DIFFERENCE IN SPHERE  2 =  0.5366116
:DTO003: DIFFERENCE IN SPHERE  3 =  0.7286392

:DIS  :  CHARGE DISTANCE       ( 0.7286392 for atom    3 spin 1)      0.6326254
 PW Mixed is           49
 
******************************************************
* MULTISECANT MIXING VER9 RELEASE 10.4.0              *
* Slow Mode, cautious                                *
* Fixed density scale                                *
* Regularization       1.000E-04                     *
* Step Trust Radius    0.75000                       *
* Trust Upper Limit    2.000E+00                     *
* Max Number of Memory Steps   12                    *
******************************************************
 
:PWTMP   1.1765E+02  4.5917E+02  3.5807E+02
:PLANE:  PW TOTAL      2.0039 DISTAN   5.52E-01  2.75E+01 %
:CHARG:  CLM/ATOM    299.8791 DISTAN   4.31E-01  1.44E-01 %
 
Step History
        DMIX         DMIXT        Red     Pred      Trust     Lambda    MagRel    MagAbs     Beta
  1   3.5000E-02   3.5000E-02 -1.00E+00  1.00E+00 -1.00E+01  1.00E+00  3.50E-02  3.50E-02  1.00E+00
  2   2.5000E-02   2.5000E-02 -1.00E+00  1.00E+00 -1.00E+01  1.00E+00  2.50E-02  5.94E-02  1.00E+00
:JACOBIANS    4.767E-01   2.502E-03
  
:TRUST:  Step 3.72E-02  Charge 7.50E-02 (e) CTO  2.50E-01 (e) PW  3.50E-01 (e)
:DIRM :  MEMORY  1/12 SCALE   1.000
:MIX  :   PRATT  REGULARIZATION:  1.00E-04 GREED: 0.03718  Expand 1.49  0.0372                
     
       CHARGES OF MIXED CHARGE DENSITY
:CTO   : INTERSTITIAL CHARGE =     3.842886
:CPC   : PW Pseudocharge     =    11.878242
:CTO001: CHARGE SPHERE  1    =    25.262047
:CTO002: CHARGE SPHERE  2    =    25.262047
:CTO003: CHARGE SPHERE  3    =    43.816510

:NEC03: NUCLEAR AND ELECTRONIC CHARGE    142.00000   142.00000

PW CHANGE     H    K    L      Current       Change    Residue
:PTO001:      0    0    0  4.39051361E-02 -4.776E-03 -2.364E-03
:PTO003:      0    0   -2 -1.76010161E-02  7.504E-03  1.364E-02
:PTO004:      0   -2   -2  2.16072044E-03 -3.311E-02 -3.911E-02
:PTO006:     -2   -2   -2  6.29539209E-03  4.943E-03  2.242E-03
:PTO007:      0    0   -4 -2.06735096E-02 -8.701E-03 -5.668E-04
:PTO009:      0   -2   -4  2.44755972E-02  6.339E-03 -7.533E-03
:PTO010:     -2   -2   -4 -6.03078789E-02 -1.612E-02  2.411E-02
:PTO013:      0   -4   -4 -1.48385493E-02 -2.948E-03  1.074E-02
:PTO015:     -2   -4   -4  5.87982075E-03 -8.008E-05 -4.626E-03
:PTO016:      0    0   -6  1.48200743E-03 -1.705E-05 -9.526E-04
:PTO017:      0   -2   -6 -9.08974202E-03 -9.246E-04  8.571E-03
:PTO019:     -2   -2   -6  6.96650551E-04 -7.915E-04 -1.258E-03

:ENE  : ********** TOTAL ENERGY IN Ry =       -24232.21836952

 Flat Integration
 New Mode for Coulomb Integral
 Consistent 3/8+Simpson combinations
 Extension of core to zero
 LDM version in phi
 Fifth-order quadrature in outwin


            ---------
:ITE003:  3. ITERATION
            ---------

:NATO :    3 INDEPENDENT AND    4 TOTAL ATOMS IN UNITCELL
       SUBSTANCE: FeRh                                                        

       LATTICE                      = F   
:POT  : POTENTIAL OPTION EX_PBE EC_PBE VX_PBE VC_PBE
:LAT  : LATTICE CONSTANTS= 11.27222 11.27222 11.27222    1.571    1.571    1.571
:VOL  : UNIT CELL VOLUME =     358.07036
       MODE OF CALCULATION IS       = RELA
       NON-SPINPOLARIZED CALCULATION
:IFFT  : FFT-parameters:   90   90   90 Factor: 2.00


   CONVERGENCE PARAMETER FOR PSEUDOCHARGE: NCON=  9
   MAXIMAL VALUE OF RMT(JATOM)*ABSK(NKK) : RK  =29.05063


:VKCOUL :  VK-COUL convergence: 0.533E-07
       ATOMNUMBER=  1 Fe1        VCOUL-ZERO =  0.62139E+00
       ATOMNUMBER=  2 Fe2        VCOUL-ZERO =  0.62139E+00
       ATOMNUMBER=  3 Rh1        VCOUL-ZERO =  0.58980E+00
:FIT001: LUSE= 13 SIGMA OF V-XC FIT FOR ATOM  1  0.5021001E-02
:FIT001: LUSE= 13 SIGMA OF V-XC FIT FOR ATOM  1  0.5021001E-02
:FIT002: LUSE= 13 SIGMA OF V-XC FIT FOR ATOM  2  0.5021001E-02
:FIT002: LUSE= 13 SIGMA OF V-XC FIT FOR ATOM  2  0.5021001E-02
:FIT003: LUSE= 13 SIGMA OF V-XC FIT FOR ATOM  3  0.1169544E-02
:FIT003: LUSE= 13 SIGMA OF V-XC FIT FOR ATOM  3  0.1169544E-02
:DEN  : DENSITY INTEGRAL  =         -9880.85984059   (Ry)
       ELS_POTENTIAL_AT Z=0 and Z=0.5:  -0.21069  -0.21069
       ELS_POTENTIAL_AT Y=0 and Y=0.5:   0.00000   0.00000
:VZERO:v0,v0c,v0x  -0.74579  -0.21069  -0.53511 v5,v5c,v5x  -0.74579  -0.21069  -0.53511
:VZERY:v0,v0c,v0x  -0.78039   0.00000  -0.78039 v5,v5c,v5x  -0.78039   0.00000  -0.78039
:VZERX:v0,v0c,v0x  -0.78039   0.00000  -0.78039 v5,v5c,v5x  -0.78039   0.00000  -0.78039
:LMAX-WF:   10   Non-Spherical LMAX:   4

          ATOMIC SPHERE DEPENDENT PARAMETERS FOR ATOM  Fe1       
:e__0001: OVERALL ENERGY PARAMETER IS    0.5477
          OVERALL BASIS SET ON ATOM IS LAPW
:E1_0001: E( 1)=    0.5477
             APW+lo
:E1_0001: E( 1)=   -3.1212   E(BOTTOM)=   -3.155   E(TOP)=   -3.088  1  2   181
             LOCAL ORBITAL
:E2_0001: E( 2)=    0.6559   E(BOTTOM)=    0.407   E(TOP)=    0.904  0  1   123
             APW+lo
:E0_0001: E( 0)=    0.5477
             APW+lo

          ATOMIC SPHERE DEPENDENT PARAMETERS FOR ATOM  Fe2       
:e__0002: OVERALL ENERGY PARAMETER IS    0.5477
          OVERALL BASIS SET ON ATOM IS LAPW
:E1_0002: E( 1)=    0.5477
             APW+lo
:E1_0002: E( 1)=   -3.1212   E(BOTTOM)=   -3.155   E(TOP)=   -3.088  1  2   181
             LOCAL ORBITAL
:E2_0002: E( 2)=    0.6559   E(BOTTOM)=    0.407   E(TOP)=    0.904  0  1   123
             APW+lo
:E0_0002: E( 0)=    0.5477
             APW+lo

          ATOMIC SPHERE DEPENDENT PARAMETERS FOR ATOM  Rh1       
:e__0003: OVERALL ENERGY PARAMETER IS    0.5477
          OVERALL BASIS SET ON ATOM IS LAPW
:E1_0003: E( 1)=    0.5477
             APW+lo
:E1_0003: E( 1)=   -2.6405   E(BOTTOM)=   -2.740   E(TOP)=   -2.542  2  3   169
             LOCAL ORBITAL
:E2_0003: E( 2)=    0.5477   E(BOTTOM)=    0.165   E(TOP)= -200.000  1 -1    95
             APW+lo
:E0_0003: E( 0)=    0.5477
             APW+lo

       K=   0.00000   0.00000   0.00000            1
:RKM  : MATRIX SIZE   185LOs:  48  RKM= 6.64  WEIGHT= 1.00  PGR:    
       EIGENVALUES ARE:
:EIG00001:      -3.1151203   -3.1151203   -3.1151203   -3.1132668   -3.1132668
:EIG00006:      -3.1132668   -2.6234733   -2.6234733   -2.6234733   -2.6157389
:EIG00011:      -2.6157389   -2.6157389    0.0938233    0.3570078    0.3570078
:EIG00016:       0.4224173    0.4224173    0.4224173    0.5744227    0.5744227
:EIG00021:       0.5744227    0.5922753    0.5922753    0.5922753    0.7422491
:EIG00026:       0.7422491    0.7712863    0.7712863    0.7716984    0.7716984
:EIG00031:       0.8324760    0.8324760    0.8324760    1.2855510    1.3527464
:EIG00036:       1.3527464    1.3527464    1.3540395    1.3540395    1.3540395
:EIG00041:       1.4606582    1.4606582    1.4606582    1.5119236    2.0207144
:EIG00046:       2.0207144    2.0956401    2.1753067    2.1753067    2.1753067
 
       ********************************************************

:KPT   :      NUMBER OF K-POINTS:    20
:GAP (global)   :    0.0    Ry =     0.0   eV (metal)
         Bandranges (emin - emax) and occupancy:
:BAN00021:  21    0.519478    0.587971  2.00000000
:BAN00022:  22    0.527632    0.632117  2.00000000
:BAN00023:  23    0.527632    0.674586  2.00000000
:BAN00024:  24    0.551168    0.679184  2.00000000
:BAN00025:  25    0.662053    0.742249  2.00000000
:BAN00026:  26    0.685345    0.749643  2.00028516
:BAN00027:  27    0.702101    0.771286  1.95374448
:BAN00028:  28    0.722117    0.771286  1.92922500
:BAN00029:  29    0.736159    0.781287  1.65549422
:BAN00030:  30    0.743516    0.784459  0.45470883
:BAN00031:  31    0.759050    0.832476  0.00654231
:BAN00032:  32    0.766912    0.832476  0.00000000
:BAN00033:  33    0.776639    0.849235  0.00000000
:BAN00034:  34    0.826614    1.285551  0.00000000
:BAN00035:  35    0.854336    1.352746  0.00000000
:BAN00036:  36    0.860253    1.352746  0.00000000
        Energy to separate low and high energystates:    0.04382


:NOE  : NUMBER OF ELECTRONS          =   58.000

:FER  : F E R M I - ENERGY(TETRAH.M.)=   0.7596821902
:GMA  : POTENTIAL AND CHARGE CUT-OFF  12.00 Ry**.5

:POS001: ATOM    1 X,Y,Z = 0.00000 0.00000 0.00000  MULT= 1  ZZ= 26.000  Fe1       

       LMMAX  5
       LM=   0 0  4 0  4 4  6 0  6 4

:CHA001: TOTAL VALENCE CHARGE INSIDE SPHERE   1 =  13.2612    (RMT=  2.4300 )
:PCS001: PARTIAL CHARGES SPHERE =  1 S,P,D,F,      D-EG,D-T2G 
:QTL001: 0.4758 6.5322 6.1798 0.0545 0.0000 0.0000 0.0000 2.4076 3.7721 0.0000 0.0000 0.0000
        Q-s-low E-s-low   Q-p-low E-p-low   Q-d-low E-d-low   Q-f-low E-f-low
:EPL001:  0.0011 -2.6289    5.9898 -3.1139    0.0027 -2.6245    0.0011 -2.6249
        Q-s-hi  E-s-hi    Q-p-hi  E-p-hi    Q-d-hi  E-d-hi    Q-f-hi  E-f-hi 
:EPH001:  0.4747  0.3366    0.5424  0.4938    6.1771  0.6282    0.0534  0.5721

:POS002: ATOM    2 X,Y,Z = 0.50000 0.00000 0.00000  MULT= 1  ZZ= 26.000  Fe2       

       LMMAX  5
       LM=   0 0  4 0  4 4  6 0  6 4

:CHA002: TOTAL VALENCE CHARGE INSIDE SPHERE   2 =  13.2612    (RMT=  2.4300 )
:PCS002: PARTIAL CHARGES SPHERE =  2 S,P,D,F,      D-EG,D-T2G 
:QTL002: 0.4758 6.5322 6.1798 0.0545 0.0000 0.0000 0.0000 2.4076 3.7721 0.0000 0.0000 0.0000
        Q-s-low E-s-low   Q-p-low E-p-low   Q-d-low E-d-low   Q-f-low E-f-low
:EPL002:  0.0011 -2.6289    5.9898 -3.1139    0.0027 -2.6245    0.0011 -2.6249
        Q-s-hi  E-s-hi    Q-p-hi  E-p-hi    Q-d-hi  E-d-hi    Q-f-hi  E-f-hi 
:EPH002:  0.4747  0.3366    0.5424  0.4938    6.1771  0.6282    0.0534  0.5721

:POS003: ATOM    3 X,Y,Z = 0.25000 0.25000 0.25000  MULT= 2  ZZ= 45.000  Rh1       

       LMMAX  6
       LM=   0 0  4 0  4 4  6 0  6 4 -3 2

:CHA003: TOTAL VALENCE CHARGE INSIDE SPHERE   3 =  13.2440    (RMT=  2.4300 )
:PCS003: PARTIAL CHARGES SPHERE =  3 S,P,D,F,      D-EG,D-T2G 
:QTL003: 0.3765 6.3555 6.4522 0.0476 0.0000 0.0000 0.0000 2.4715 3.9807 0.0000 0.0000 0.0000
        Q-s-low E-s-low   Q-p-low E-p-low   Q-d-low E-d-low   Q-f-low E-f-low
:EPL003:  0.0003 -3.0405    5.9580 -2.6202    0.0008 -3.0509    0.0004 -3.0481
        Q-s-hi  E-s-hi    Q-p-hi  E-p-hi    Q-d-hi  E-d-hi    Q-f-hi  E-f-hi 
:EPH003:  0.3762  0.3561    0.3975  0.5211    6.4514  0.5413    0.0472  0.6139

:CHA  : TOTAL VALENCE CHARGE INSIDE UNIT CELL =      58.000000

:SUM  : SUM OF EIGENVALUES =         -50.066036144


        1.ATOM      Fe1                   5 CORE STATES
:1S 001: 1S                -512.971887520 Ry
:2S 001: 2S                 -58.880192345 Ry
:2PP001: 2P*                -50.583676342 Ry
:2P 001: 2P                 -49.666175696 Ry
:3S 001: 3S                  -5.600959120 Ry

        2.ATOM      Fe2                   5 CORE STATES
:1S 002: 1S                -512.971887528 Ry
:2S 002: 2S                 -58.880192352 Ry
:2PP002: 2P*                -50.583676349 Ry
:2P 002: 2P                 -49.666175704 Ry
:3S 002: 3S                  -5.600959125 Ry

        3.ATOM      Rh1                  10 CORE STATES
:1S 003: 1S               -1691.301038428 Ry
:2S 003: 2S                -244.192062840 Ry
:2PP003: 2P*               -226.002112802 Ry
:2P 003: 2P                -215.372820810 Ry
:3S 003: 3S                 -42.728654914 Ry
:3PP003: 3P*                -35.610572075 Ry
:3P 003: 3P                 -33.782066148 Ry
:3DD003: 3D*                -21.183999554 Ry
:3D 003: 3D                 -20.823410139 Ry
:4S 003: 4S                  -4.969774791 Ry
:CINT001 Core Integral Atom   1   11.999201
:CINT002 Core Integral Atom   2   11.999201
:CINT003 Core Integral Atom   3   29.997264

       DENSITY AT NUCLEUS
        JATOM        VALENCE       SEMI-CORE          CORE           TOTAL
:RTO001:   1        7.015022        0.000000    15301.665085    15308.680106
:RTO002:   2        7.015022        0.000000    15301.665085    15308.680106
:RTO003:   3       24.590232        0.000000   155311.140265   155335.730498
     
       CHARGES OF NEW CHARGE DENSITY
:NTO   : INTERSTITIAL CHARGE =     4.989545
:NPC   : PW Pseudocharge     =    11.540642
:NTO001: CHARGE SPHERE  1    =    25.260396
:NTO002: CHARGE SPHERE  2    =    25.260396
:NTO003: CHARGE SPHERE  3    =    43.241266

:NEC01: NUCLEAR AND ELECTRONIC CHARGE    142.00000   141.99287
     
       CHARGES OF OLD CHARGE DENSITY
:OTO   : INTERSTITIAL CHARGE =     3.842886
:OPC   : PW Pseudocharge     =    11.878242
:OTO001: CHARGE SPHERE  1    =    25.262047
:OTO002: CHARGE SPHERE  2    =    25.262047
:OTO003: CHARGE SPHERE  3    =    43.816510

:NEC02: NUCLEAR AND ELECTRONIC CHARGE    142.00000   142.00000
     
       CONVERGENCE TEST
:DTO001: DIFFERENCE IN SPHERE  1 =  0.5495537
:DTO002: DIFFERENCE IN SPHERE  2 =  0.5495537
:DTO003: DIFFERENCE IN SPHERE  3 =  0.6850933

:DIS  :  CHARGE DISTANCE       ( 0.6850933 for atom    3 spin 1)      0.6173235
 PW Mixed is           49
 
******************************************************
* MULTISECANT MIXING VER9 RELEASE 10.4.0              *
* Standard Mode with controls                        *
* Fixed density scale                                *
* Regularization       1.000E-04                     *
* Trust Upper Limit    5.000E+00                     *
* Max Number of Memory Steps    8                    *
******************************************************
 
:PWTMP   1.1765E+02  4.5917E+02  3.5807E+02
:PLANE:  PW TOTAL      1.8276 DISTAN   4.27E-01  2.34E+01 %
:CHARG:  CLM/ATOM    299.8784 DISTAN   4.18E-01  1.39E-01 %
 
Step History
        DMIX         DMIXT        Red     Pred      Trust     Lambda    MagRel    MagAbs     Beta
  1   3.5000E-02   3.5000E-02 -1.00E+00  1.00E+00 -1.00E+01  1.00E+00  3.50E-02  3.50E-02  1.00E+00
  2   2.5000E-02   2.5000E-02  5.92E-01  1.00E+00 -1.00E+01  1.00E+00  2.50E-02  5.94E-02  1.00E+00
  3   3.7179E-02   3.7179E-02 -1.00E+00  1.00E+00 -1.00E+01  1.00E+00  3.72E-02  5.23E-02  1.00E+00
:JACOBIANS    7.336E-01   2.024E-03
  
:NORMS:  1/Froebius, Min, Max, Used   0.9841E+00  0.4961E+00  0.9922E+00  0.9845E+00
:INFO :  Number of Memory Steps    2 Skipping    0
:INFO :  SLambda=    0.1143294899  Max    0.1143294899
:PREDicted Charge, CTotal, PW Trust    6.037E-03   9.689E-03   5.279E-01
:PREDicted DMix, Beta, BLim   7.7809E-02  9.0175E-01  4.0653E-01

Eigenvalues, unscaled except for SY+YY
   #     SY Real        SY Imag          SS             YY         SY+YY Real      SY+YY Imag
   1   2.231548E-14   0.000000E+00   1.936766E+00   1.998149E+00   1.855069E-03   0.000000E+00
   2   1.943825E+00   0.000000E+00   0.000000E+00   1.851374E-03   2.220382E+00   0.000000E+00
 
:INFO :  Singular value  2.220E+00 Weight  1.000E+00 Projection  9.017E-03
:INFO :  Singular value  1.855E-03 Weight  9.885E-01 Projection -5.800E+00
:RANK :  ACTIVE   1.99/2  =  99.43 % ; YY RANK   1.99/2  =  99.42 %
 
:DLIM :  Beta Active  9.263E-01
:BLIM :  VZERO Control Off
:TRUST:  Step 2.52E-01  Charge 7.50E-02 (e) CTO  2.50E-01 (e) PW  3.85E-01 (e)
:DIRM :  MEMORY  2/8  SCALE   1.000 RED  0.94 PRED  1.00 NEXT  0.98 BETA  0.93
:TRAVE:  Charge 2.72E-02 (e) CTO  6.37E-02 (e) PW  6.14E-02 (e)
:DIRP :  |MSR1|= 5.068E-02 |PRATT|= 4.271E-01 ANGLE=  47.9 DEGREES
:DIRQ :  |MSR1|= 6.770E-02 |PRATT|= 1.255E+00 ANGLE=  11.6 DEGREES
:DIRT :  |MSR1|= 8.457E-02 |PRATT|= 1.325E+00 ANGLE=  29.3 DEGREES
:MIX  :   MSD1   REGULARIZATION:  2.00E-04 GREED: 0.05570  Newton 1.00  0.0638                
     
       CHARGES OF MIXED CHARGE DENSITY
:CTO   : INTERSTITIAL CHARGE =     3.906569
:CPC   : PW Pseudocharge     =    12.001305
:CTO001: CHARGE SPHERE  1    =    25.257443
:CTO002: CHARGE SPHERE  2    =    25.257443
:CTO003: CHARGE SPHERE  3    =    43.789273

:NEC03: NUCLEAR AND ELECTRONIC CHARGE    142.00000   142.00000

PW CHANGE     H    K    L      Current       Change    Residue
:PTO001:      0    0    0  4.44266686E-02  5.215E-04  2.325E-03
:PTO002:     -1   -1   -1 -3.58464180E-11 -3.585E-11 -4.918E-11
:PTO003:      0    0   -2 -1.78985277E-02 -2.975E-04  5.965E-03
:PTO004:      0   -2   -2  4.54440109E-03  2.384E-03 -5.815E-03
:PTO005:     -1   -1   -3 -1.86149017E-12 -1.862E-12 -3.471E-11
:PTO006:     -2   -2   -2  5.74751696E-03 -5.479E-04 -2.661E-03
:PTO007:      0    0   -4 -1.95044329E-02  1.169E-03  8.146E-03
:PTO008:     -1   -3   -3  4.64126683E-11  4.641E-11  1.057E-10
:PTO009:      0   -2   -4  2.31968445E-02 -1.279E-03 -1.372E-02
:PTO010:     -2   -2   -4 -5.67501732E-02  3.558E-03  4.018E-02
:PTO011:     -3   -3   -3  1.31341307E-11  1.313E-11 -3.323E-11
:PTO012:     -1   -1   -5 -9.96710676E-12 -9.967E-12  1.161E-10

:ENE  : ********** TOTAL ENERGY IN Ry =       -24232.21102086

 Flat Integration
 New Mode for Coulomb Integral
 Consistent 3/8+Simpson combinations
 Extension of core to zero
 LDM version in phi
 Fifth-order quadrature in outwin


            ---------
:ITE004:  4. ITERATION
            ---------

:NATO :    3 INDEPENDENT AND    4 TOTAL ATOMS IN UNITCELL
       SUBSTANCE: FeRh                                                        

       LATTICE                      = F   
:POT  : POTENTIAL OPTION EX_PBE EC_PBE VX_PBE VC_PBE
:LAT  : LATTICE CONSTANTS= 11.27222 11.27222 11.27222    1.571    1.571    1.571
:VOL  : UNIT CELL VOLUME =     358.07036
       MODE OF CALCULATION IS       = RELA
       NON-SPINPOLARIZED CALCULATION
:IFFT  : FFT-parameters:   90   90   90 Factor: 2.00


   CONVERGENCE PARAMETER FOR PSEUDOCHARGE: NCON=  9
   MAXIMAL VALUE OF RMT(JATOM)*ABSK(NKK) : RK  =29.05063


:VKCOUL :  VK-COUL convergence: 0.539E-07
       ATOMNUMBER=  1 Fe1        VCOUL-ZERO =  0.62616E+00
       ATOMNUMBER=  2 Fe2        VCOUL-ZERO =  0.62616E+00
       ATOMNUMBER=  3 Rh1        VCOUL-ZERO =  0.59228E+00
:FIT001: LUSE= 13 SIGMA OF V-XC FIT FOR ATOM  1  0.4657806E-02
:FIT001: LUSE= 13 SIGMA OF V-XC FIT FOR ATOM  1  0.4657806E-02
:FIT002: LUSE= 13 SIGMA OF V-XC FIT FOR ATOM  2  0.4657806E-02
:FIT002: LUSE= 13 SIGMA OF V-XC FIT FOR ATOM  2  0.4657806E-02
:FIT003: LUSE= 13 SIGMA OF V-XC FIT FOR ATOM  3  0.9376729E-03
:FIT003: LUSE= 13 SIGMA OF V-XC FIT FOR ATOM  3  0.9376729E-03
:DEN  : DENSITY INTEGRAL  =         -9876.80901051   (Ry)
       ELS_POTENTIAL_AT Z=0 and Z=0.5:  -0.20546  -0.20546
       ELS_POTENTIAL_AT Y=0 and Y=0.5:   0.00000   0.00000
:VZERO:v0,v0c,v0x  -0.75626  -0.20546  -0.55080 v5,v5c,v5x  -0.75626  -0.20546  -0.55080
:VZERY:v0,v0c,v0x  -0.78546   0.00000  -0.78546 v5,v5c,v5x  -0.78546   0.00000  -0.78546
:VZERX:v0,v0c,v0x  -0.78546   0.00000  -0.78546 v5,v5c,v5x  -0.78546   0.00000  -0.78546
:LMAX-WF:   10   Non-Spherical LMAX:   4

          ATOMIC SPHERE DEPENDENT PARAMETERS FOR ATOM  Fe1       
:e__0001: OVERALL ENERGY PARAMETER IS    0.5557
          OVERALL BASIS SET ON ATOM IS LAPW
:E1_0001: E( 1)=    0.5557
             APW+lo
:E1_0001: E( 1)=   -3.1427   E(BOTTOM)=   -3.176   E(TOP)=   -3.110  1  2   181
             LOCAL ORBITAL
:E2_0001: E( 2)=    0.6397   E(BOTTOM)=    0.395   E(TOP)=    0.884  0  1   127
             APW+lo
:E0_0001: E( 0)=    0.5557
             APW+lo

          ATOMIC SPHERE DEPENDENT PARAMETERS FOR ATOM  Fe2       
:e__0002: OVERALL ENERGY PARAMETER IS    0.5557
          OVERALL BASIS SET ON ATOM IS LAPW
:E1_0002: E( 1)=    0.5557
             APW+lo
:E1_0002: E( 1)=   -3.1427   E(BOTTOM)=   -3.176   E(TOP)=   -3.110  1  2   180
             LOCAL ORBITAL
:E2_0002: E( 2)=    0.6397   E(BOTTOM)=    0.395   E(TOP)=    0.884  0  1   127
             APW+lo
:E0_0002: E( 0)=    0.5557
             APW+lo

          ATOMIC SPHERE DEPENDENT PARAMETERS FOR ATOM  Rh1       
:e__0003: OVERALL ENERGY PARAMETER IS    0.5557
          OVERALL BASIS SET ON ATOM IS LAPW
:E1_0003: E( 1)=    0.5557
             APW+lo
:E1_0003: E( 1)=   -2.6622   E(BOTTOM)=   -2.760   E(TOP)=   -2.564  2  3   171
             LOCAL ORBITAL
:E2_0003: E( 2)=    0.5557   E(BOTTOM)=    0.152   E(TOP)= -200.000  1 -1    93
             APW+lo
:E0_0003: E( 0)=    0.5557
             APW+lo

       K=   0.00000   0.00000   0.00000            1
:RKM  : MATRIX SIZE   185LOs:  48  RKM= 6.64  WEIGHT= 1.00  PGR:    
       EIGENVALUES ARE:
:EIG00001:      -3.1366278   -3.1366278   -3.1366278   -3.1348217   -3.1348217
:EIG00006:      -3.1348217   -2.6452852   -2.6452852   -2.6452852   -2.6376966
:EIG00011:      -2.6376966   -2.6376966    0.0912107    0.3467982    0.3467982
:EIG00016:       0.4124989    0.4124989    0.4124989    0.5620938    0.5620938
:EIG00021:       0.5620938    0.5773770    0.5773770    0.5773770    0.7254940
:EIG00026:       0.7254940    0.7533261    0.7533261    0.7548771    0.7548771
:EIG00031:       0.8140737    0.8140737    0.8140737    1.2820545    1.3425907
:EIG00036:       1.3425907    1.3425907    1.3503717    1.3503717    1.3503717
:EIG00041:       1.4508138    1.4508138    1.4508138    1.5060180    2.0094360
:EIG00046:       2.0094360    2.0903015    2.1735947    2.1735947    2.1735947
 
       ********************************************************

:KPT   :      NUMBER OF K-POINTS:    20
:GAP (global)   :    0.0    Ry =     0.0   eV (metal)
         Bandranges (emin - emax) and occupancy:
:BAN00021:  21    0.507393    0.574581  2.00000000
:BAN00022:  22    0.514383    0.620126  2.00000000
:BAN00023:  23    0.514383    0.658884  2.00000000
:BAN00024:  24    0.538677    0.663649  2.00000000
:BAN00025:  25    0.647208    0.725494  2.00000000
:BAN00026:  26    0.671375    0.732714  2.00031889
:BAN00027:  27    0.686428    0.753326  1.95221070
:BAN00028:  28    0.705971    0.753326  1.92984400
:BAN00029:  29    0.719307    0.763844  1.65536691
:BAN00030:  30    0.726831    0.767167  0.45505882
:BAN00031:  31    0.741805    0.814074  0.00719140
:BAN00032:  32    0.749046    0.814074  0.00000000
:BAN00033:  33    0.759725    0.830538  0.00000000
:BAN00034:  34    0.810389    1.282054  0.00000000
:BAN00035:  35    0.841380    1.342591  0.00000000
:BAN00036:  36    0.843760    1.342591  0.00000000
        Energy to separate low and high energystates:    0.04121


:NOE  : NUMBER OF ELECTRONS          =   58.000

:FER  : F E R M I - ENERGY(TETRAH.M.)=   0.7426066218
:GMA  : POTENTIAL AND CHARGE CUT-OFF  12.00 Ry**.5

:POS001: ATOM    1 X,Y,Z = 0.00000 0.00000 0.00000  MULT= 1  ZZ= 26.000  Fe1       

       LMMAX  5
       LM=   0 0  4 0  4 4  6 0  6 4

:CHA001: TOTAL VALENCE CHARGE INSIDE SPHERE   1 =  13.2873    (RMT=  2.4300 )
:PCS001: PARTIAL CHARGES SPHERE =  1 S,P,D,F,      D-EG,D-T2G 
:QTL001: 0.4710 6.5189 6.2255 0.0532 0.0000 0.0000 0.0000 2.4289 3.7966 0.0000 0.0000 0.0000
        Q-s-low E-s-low   Q-p-low E-p-low   Q-d-low E-d-low   Q-f-low E-f-low
:EPL001:  0.0011 -2.6506    5.9900 -3.1355    0.0026 -2.6463    0.0011 -2.6468
        Q-s-hi  E-s-hi    Q-p-hi  E-p-hi    Q-d-hi  E-d-hi    Q-f-hi  E-f-hi 
:EPH001:  0.4699  0.3307    0.5289  0.4842    6.2229  0.6138    0.0521  0.5585

:POS002: ATOM    2 X,Y,Z = 0.50000 0.00000 0.00000  MULT= 1  ZZ= 26.000  Fe2       

       LMMAX  5
       LM=   0 0  4 0  4 4  6 0  6 4

:CHA002: TOTAL VALENCE CHARGE INSIDE SPHERE   2 =  13.2873    (RMT=  2.4300 )
:PCS002: PARTIAL CHARGES SPHERE =  2 S,P,D,F,      D-EG,D-T2G 
:QTL002: 0.4710 6.5189 6.2255 0.0532 0.0000 0.0000 0.0000 2.4289 3.7966 0.0000 0.0000 0.0000
        Q-s-low E-s-low   Q-p-low E-p-low   Q-d-low E-d-low   Q-f-low E-f-low
:EPL002:  0.0011 -2.6506    5.9900 -3.1355    0.0026 -2.6463    0.0011 -2.6468
        Q-s-hi  E-s-hi    Q-p-hi  E-p-hi    Q-d-hi  E-d-hi    Q-f-hi  E-f-hi 
:EPH002:  0.4699  0.3307    0.5289  0.4842    6.2229  0.6138    0.0521  0.5585

:POS003: ATOM    3 X,Y,Z = 0.25000 0.25000 0.25000  MULT= 2  ZZ= 45.000  Rh1       

       LMMAX  6
       LM=   0 0  4 0  4 4  6 0  6 4 -3 2

:CHA003: TOTAL VALENCE CHARGE INSIDE SPHERE   3 =  13.2626    (RMT=  2.4300 )
:PCS003: PARTIAL CHARGES SPHERE =  3 S,P,D,F,      D-EG,D-T2G 
:QTL003: 0.3734 6.3460 6.4850 0.0462 0.0000 0.0000 0.0000 2.4890 3.9960 0.0000 0.0000 0.0000
        Q-s-low E-s-low   Q-p-low E-p-low   Q-d-low E-d-low   Q-f-low E-f-low
:EPL003:  0.0003 -3.0626    5.9587 -2.6421    0.0008 -3.0728    0.0004 -3.0700
        Q-s-hi  E-s-hi    Q-p-hi  E-p-hi    Q-d-hi  E-d-hi    Q-f-hi  E-f-hi 
:EPH003:  0.3731  0.3494    0.3873  0.5112    6.4842  0.5281    0.0458  0.6000

:CHA  : TOTAL VALENCE CHARGE INSIDE UNIT CELL =      57.999991

:SUM  : SUM OF EIGENVALUES =         -51.001368631


        1.ATOM      Fe1                   5 CORE STATES
:1S 001: 1S                -513.012994324 Ry
:2S 001: 2S                 -58.919650179 Ry
:2PP001: 2P*                -50.623603506 Ry
:2P 001: 2P                 -49.706055568 Ry
:3S 001: 3S                  -5.623844936 Ry

        2.ATOM      Fe2                   5 CORE STATES
:1S 002: 1S                -513.012994283 Ry
:2S 002: 2S                 -58.919650138 Ry
:2PP002: 2P*                -50.623603464 Ry
:2P 002: 2P                 -49.706055526 Ry
:3S 002: 3S                  -5.623844906 Ry

        3.ATOM      Rh1                  10 CORE STATES
:1S 003: 1S               -1691.342513570 Ry
:2S 003: 2S                -244.232412657 Ry
:2PP003: 2P*               -226.042802159 Ry
:2P 003: 2P                -215.413434357 Ry
:3S 003: 3S                 -42.763694987 Ry
:3PP003: 3P*                -35.645756034 Ry
:3P 003: 3P                 -33.817056616 Ry
:3DD003: 3D*                -21.219569366 Ry
:3D 003: 3D                 -20.858912463 Ry
:4S 003: 4S                  -4.993836272 Ry
:CINT001 Core Integral Atom   1   11.999214
:CINT002 Core Integral Atom   2   11.999214
:CINT003 Core Integral Atom   3   29.997303

       DENSITY AT NUCLEUS
        JATOM        VALENCE       SEMI-CORE          CORE           TOTAL
:RTO001:   1        6.925857        0.000000    15302.036693    15308.962550
:RTO002:   2        6.925857        0.000000    15302.036693    15308.962550
:RTO003:   3       24.342293        0.000000   155312.242994   155336.585287
     
       CHARGES OF NEW CHARGE DENSITY
:NTO   : INTERSTITIAL CHARGE =     4.900210
:NPC   : PW Pseudocharge     =    11.396217
:NTO001: CHARGE SPHERE  1    =    25.286465
:NTO002: CHARGE SPHERE  2    =    25.286464
:NTO003: CHARGE SPHERE  3    =    43.259911

:NEC01: NUCLEAR AND ELECTRONIC CHARGE    142.00000   141.99296
     
       CHARGES OF OLD CHARGE DENSITY
:OTO   : INTERSTITIAL CHARGE =     3.906569
:OPC   : PW Pseudocharge     =    12.001305
:OTO001: CHARGE SPHERE  1    =    25.257443
:OTO002: CHARGE SPHERE  2    =    25.257443
:OTO003: CHARGE SPHERE  3    =    43.789273

:NEC02: NUCLEAR AND ELECTRONIC CHARGE    142.00000   142.00000
     
       CONVERGENCE TEST
:DTO001: DIFFERENCE IN SPHERE  1 =  0.4104292
:DTO002: DIFFERENCE IN SPHERE  2 =  0.4104302
:DTO003: DIFFERENCE IN SPHERE  3 =  0.6001692

:DIS  :  CHARGE DISTANCE       ( 0.6001692 for atom    3 spin 1)      0.5052995
 PW Mixed is           49
 
******************************************************
* MULTISECANT MIXING VER9 RELEASE 10.4.0              *
* Standard Mode with controls                        *
* Fixed density scale                                *
* Regularization       1.000E-04                     *
* Trust Upper Limit    5.000E+00                     *
* Max Number of Memory Steps    8                    *
******************************************************
 
:PWTMP   1.1765E+02  4.5917E+02  3.5807E+02
:PLANE:  PW TOTAL      1.8346 DISTAN   3.90E-01  2.12E+01 %
:CHARG:  CLM/ATOM    299.8751 DISTAN   3.47E-01  1.16E-01 %
 
Step History
        DMIX         DMIXT        Red     Pred      Trust     Lambda    MagRel    MagAbs     Beta
  1   3.5000E-02   3.5000E-02 -1.00E+00  1.00E+00 -1.00E+01  1.00E+00  3.50E-02  3.50E-02  1.00E+00
  2   2.5000E-02   2.5000E-02  5.92E-01  1.00E+00 -1.00E+01  1.00E+00  2.50E-02  5.94E-02  1.00E+00
  3   3.7179E-02   3.7179E-02  9.43E-01  1.00E+00 -1.00E+01  1.14E-01  3.72E-02  5.23E-02  1.00E+00
  4   5.5699E-02   5.5699E-02 -1.00E+00  9.82E-01  2.52E-01  1.00E+00  6.38E-02  8.46E-02  9.26E-01
:JACOBIANS    8.681E-01   1.339E-01
  
:NORMS:  1/Froebius, Min, Max, Used   0.7779E+00  0.4223E+00  0.9925E+00  0.9332E+00
:INFO :  Number of Memory Steps    3 Skipping    0
:INFO :  SLambda=    1.5123494376  Max    1.5123494376
:PREDicted Charge, CTotal, PW Trust    1.507E-01   3.508E-01   1.413E-01
:PREDicted DMix, Beta, BLim   2.7438E-01  2.6265E+00  4.3343E-01

Eigenvalues, unscaled except for SY+YY
   #     SY Real        SY Imag          SS             YY         SY+YY Real      SY+YY Imag
   1   1.743327E+00   0.000000E+00   1.715776E+00   1.970177E+00   4.546643E+00   0.000000E+00
   2   1.959741E-14   0.000000E+00   9.961956E-02   1.028166E+00   1.681639E-03   0.000000E+00
   3   3.079609E-01   0.000000E+00   1.812793E-16   1.657454E-03   1.553940E+00   0.000000E+00
 
:INFO :  Singular value  4.547E+00 Weight  1.000E+00 Projection -1.328E-01
:INFO :  Singular value  1.554E+00 Weight  1.000E+00 Projection -9.292E-01
:INFO :  Singular value  1.682E-03 Weight  9.865E-01 Projection  8.343E+00
:RANK :  ACTIVE   2.99/3  =  99.55 % ; YY RANK   2.99/3  =  99.54 %
 
:BLIM :  VZERO Control Off
:TRUST:  Step 3.76E-01  Charge 8.25E-02 (e) CTO  2.75E-01 (e) PW  3.85E-01 (e)
:DTRUS:  Lambda    1.689E+01 Increment    7.276E-12 Iterations   137 DMIX    1.060E-01
:INFOA:  Angle SubSpace to MSR1      6.69
:DIRM :  MEMORY  3/8  SCALE   1.000 RED  0.84 PRED  0.98 NEXT  0.59 
:INFO :  Limited by Atoms F by Step T

:TRAVE:  Charge 5.49E-02 (e) CTO  1.20E-01 (e) PW  3.33E-02 (e)
:DIRP :  |MSR1|= 7.847E-02 |PRATT|= 3.898E-01 ANGLE=   8.2 DEGREES
:DIRQ :  |MSR1|= 1.579E-01 |PRATT|= 1.041E+00 ANGLE=  18.3 DEGREES
:DIRT :  |MSR1|= 1.763E-01 |PRATT|= 1.112E+00 ANGLE=  18.1 DEGREES
:MIX  :   MSE1   REGULARIZATION:  1.97E-04 GREED: 0.13925  LMStep 0.54  0.1586 Charge         
     
       CHARGES OF MIXED CHARGE DENSITY
:CTO   : INTERSTITIAL CHARGE =     4.082931
:CPC   : PW Pseudocharge     =    11.809186
:CTO001: CHARGE SPHERE  1    =    25.251762
:CTO002: CHARGE SPHERE  2    =    25.251762
:CTO003: CHARGE SPHERE  3    =    43.706773

:NEC03: NUCLEAR AND ELECTRONIC CHARGE    142.00000   142.00000

PW CHANGE     H    K    L      Current       Change    Residue
:PTO001:      0    0    0  4.43826640E-02 -4.400E-05  1.151E-03
:PTO002:     -1   -1   -1  2.71579159E-10  3.074E-10  8.122E-10
:PTO003:      0    0   -2 -1.66536385E-02  1.245E-03  6.147E-03
:PTO004:      0   -2   -2  2.71905047E-03 -1.825E-03 -7.694E-03
:PTO005:     -1   -1   -3  1.27264040E-10  1.291E-10  2.155E-10
:PTO006:     -2   -2   -2  5.43999790E-03 -3.075E-04 -2.032E-03
:PTO007:      0    0   -4 -1.80879163E-02  1.417E-03  7.104E-03
:PTO008:     -1   -3   -3 -4.92300676E-10 -5.387E-10 -1.265E-09
:PTO009:      0   -2   -4  2.07739251E-02 -2.423E-03 -1.237E-02
:PTO010:     -2   -2   -4 -4.93942203E-02  7.356E-03  3.662E-02
:PTO011:     -3   -3   -3  1.02001192E-10  8.887E-11  1.720E-11
:PTO012:     -1   -1   -5 -4.20761361E-10 -4.108E-10 -5.457E-10

:ENE  : ********** TOTAL ENERGY IN Ry =       -24232.17068997

 Flat Integration
 New Mode for Coulomb Integral
 Consistent 3/8+Simpson combinations
 Extension of core to zero
 LDM version in phi
 Fifth-order quadrature in outwin


            ---------
:ITE005:  5. ITERATION
            ---------

:NATO :    3 INDEPENDENT AND    4 TOTAL ATOMS IN UNITCELL
       SUBSTANCE: FeRh                                                        

       LATTICE                      = F   
:POT  : POTENTIAL OPTION EX_PBE EC_PBE VX_PBE VC_PBE
:LAT  : LATTICE CONSTANTS= 11.27222 11.27222 11.27222    1.571    1.571    1.571
:VOL  : UNIT CELL VOLUME =     358.07036
       MODE OF CALCULATION IS       = RELA
       NON-SPINPOLARIZED CALCULATION
:IFFT  : FFT-parameters:   90   90   90 Factor: 2.00


   CONVERGENCE PARAMETER FOR PSEUDOCHARGE: NCON=  9
   MAXIMAL VALUE OF RMT(JATOM)*ABSK(NKK) : RK  =29.05063


:VKCOUL :  VK-COUL convergence: 0.576E-07
       ATOMNUMBER=  1 Fe1        VCOUL-ZERO =  0.63409E+00
       ATOMNUMBER=  2 Fe2        VCOUL-ZERO =  0.63409E+00
       ATOMNUMBER=  3 Rh1        VCOUL-ZERO =  0.59263E+00
:FIT001: LUSE= 13 SIGMA OF V-XC FIT FOR ATOM  1  0.3717261E-02
:FIT001: LUSE= 13 SIGMA OF V-XC FIT FOR ATOM  1  0.3717261E-02
:FIT002: LUSE= 13 SIGMA OF V-XC FIT FOR ATOM  2  0.3717261E-02
:FIT002: LUSE= 13 SIGMA OF V-XC FIT FOR ATOM  2  0.3717261E-02
:FIT003: LUSE= 13 SIGMA OF V-XC FIT FOR ATOM  3  0.2873701E-03
:FIT003: LUSE= 13 SIGMA OF V-XC FIT FOR ATOM  3  0.2873701E-03
:DEN  : DENSITY INTEGRAL  =         -9866.97075847   (Ry)
       ELS_POTENTIAL_AT Z=0 and Z=0.5:  -0.18036  -0.18036
       ELS_POTENTIAL_AT Y=0 and Y=0.5:   0.00000   0.00000
:VZERO:v0,v0c,v0x  -0.74453  -0.18036  -0.56417 v5,v5c,v5x  -0.74453  -0.18036  -0.56417
:VZERY:v0,v0c,v0x  -0.78880   0.00000  -0.78880 v5,v5c,v5x  -0.78880   0.00000  -0.78880
:VZERX:v0,v0c,v0x  -0.78880   0.00000  -0.78880 v5,v5c,v5x  -0.78880   0.00000  -0.78880
:LMAX-WF:   10   Non-Spherical LMAX:   4

          ATOMIC SPHERE DEPENDENT PARAMETERS FOR ATOM  Fe1       
:e__0001: OVERALL ENERGY PARAMETER IS    0.5470
          OVERALL BASIS SET ON ATOM IS LAPW
:E1_0001: E( 1)=    0.5470
             APW+lo
:E1_0001: E( 1)=   -3.1876   E(BOTTOM)=   -3.220   E(TOP)=   -3.156  1  2   178
             LOCAL ORBITAL
:E2_0001: E( 2)=    0.6048   E(BOTTOM)=    0.368   E(TOP)=    0.842  0  1   124
             APW+lo
:E0_0001: E( 0)=    0.5470
             APW+lo

          ATOMIC SPHERE DEPENDENT PARAMETERS FOR ATOM  Fe2       
:e__0002: OVERALL ENERGY PARAMETER IS    0.5470
          OVERALL BASIS SET ON ATOM IS LAPW
:E1_0002: E( 1)=    0.5470
             APW+lo
:E1_0002: E( 1)=   -3.1876   E(BOTTOM)=   -3.220   E(TOP)=   -3.156  1  2   176
             LOCAL ORBITAL
:E2_0002: E( 2)=    0.6048   E(BOTTOM)=    0.368   E(TOP)=    0.842  0  1   122
             APW+lo
:E0_0002: E( 0)=    0.5470
             APW+lo

          ATOMIC SPHERE DEPENDENT PARAMETERS FOR ATOM  Rh1       
:e__0003: OVERALL ENERGY PARAMETER IS    0.5470
          OVERALL BASIS SET ON ATOM IS LAPW
:E1_0003: E( 1)=    0.5470
             APW+lo
:E1_0003: E( 1)=   -2.7250   E(BOTTOM)=   -2.820   E(TOP)=   -2.630  2  3   161
             LOCAL ORBITAL
:E2_0003: E( 2)=    0.5538   E(BOTTOM)=    0.114   E(TOP)=    0.993  1  2   146
             APW+lo
:E0_0003: E( 0)=    0.5470
             APW+lo

       K=   0.00000   0.00000   0.00000            1
:RKM  : MATRIX SIZE   185LOs:  48  RKM= 6.64  WEIGHT= 1.00  PGR:    
       EIGENVALUES ARE:
:EIG00001:      -3.1816616   -3.1816616   -3.1816616   -3.1799531   -3.1799531
:EIG00006:      -3.1799531   -2.7084500   -2.7084500   -2.7084500   -2.7012133
:EIG00011:      -2.7012133   -2.7012133    0.0795581    0.3158305    0.3158305
:EIG00016:       0.3800807    0.3800807    0.3800807    0.5331318    0.5331318
:EIG00021:       0.5331318    0.5368786    0.5368786    0.5368786    0.6851975
:EIG00026:       0.6851975    0.7041765    0.7041765    0.7151108    0.7151108
:EIG00031:       0.7690381    0.7690381    0.7690381    1.2708780    1.3160939
:EIG00036:       1.3160939    1.3160939    1.3364530    1.3364530    1.3364530
:EIG00041:       1.4219471    1.4219471    1.4219471    1.4843056    1.9796166
:EIG00046:       1.9796166    2.0731924    2.1634843    2.1634843    2.1634843
 
       ********************************************************

:KPT   :      NUMBER OF K-POINTS:    20
:GAP (global)   :    0.0    Ry =     0.0   eV (metal)
         Bandranges (emin - emax) and occupancy:
:BAN00021:  21    0.471576    0.534077  2.00000000
:BAN00022:  22    0.476755    0.578334  2.00000000
:BAN00023:  23    0.476755    0.613698  2.00000000
:BAN00024:  24    0.502859    0.628955  2.00000000
:BAN00025:  25    0.611094    0.685197  2.00000000
:BAN00026:  26    0.635558    0.691998  2.00000000
:BAN00027:  27    0.648378    0.704176  1.99569147
:BAN00028:  28    0.667104    0.704176  1.99316994
:BAN00029:  29    0.679241    0.724081  1.59604345
:BAN00030:  30    0.689048    0.728216  0.40723527
:BAN00031:  31    0.695675    0.769038  0.00785987
:BAN00032:  32    0.711002    0.769038  0.00000000
:BAN00033:  33    0.718782    0.785079  0.00000000
:BAN00034:  34    0.770407    1.270878  0.00000000
:BAN00035:  35    0.795632    1.316094  0.00000000
:BAN00036:  36    0.815523    1.316094  0.00000000
        Energy to separate low and high energystates:    0.02956


:NOE  : NUMBER OF ELECTRONS          =   58.000

:FER  : F E R M I - ENERGY(TETRAH.M.)=   0.7006617508
:GMA  : POTENTIAL AND CHARGE CUT-OFF  12.00 Ry**.5

:POS001: ATOM    1 X,Y,Z = 0.00000 0.00000 0.00000  MULT= 1  ZZ= 26.000  Fe1       

       LMMAX  5
       LM=   0 0  4 0  4 4  6 0  6 4

:CHA001: TOTAL VALENCE CHARGE INSIDE SPHERE   1 =  13.1297    (RMT=  2.4300 )
:PCS001: PARTIAL CHARGES SPHERE =  1 S,P,D,F,      D-EG,D-T2G 
:QTL001: 0.4574 6.4842 6.1192 0.0503 0.0000 0.0000 0.0000 2.3565 3.7626 0.0000 0.0000 0.0000
        Q-s-low E-s-low   Q-p-low E-p-low   Q-d-low E-d-low   Q-f-low E-f-low
:EPL001:  0.0010 -2.7136    5.9903 -3.1806    0.0025 -2.7094    0.0011 -2.7100
        Q-s-hi  E-s-hi    Q-p-hi  E-p-hi    Q-d-hi  E-d-hi    Q-f-hi  E-f-hi 
:EPH001:  0.4564  0.3109    0.4939  0.4542    6.1167  0.5787    0.0492  0.5182

:POS002: ATOM    2 X,Y,Z = 0.50000 0.00000 0.00000  MULT= 1  ZZ= 26.000  Fe2       

       LMMAX  5
       LM=   0 0  4 0  4 4  6 0  6 4

:CHA002: TOTAL VALENCE CHARGE INSIDE SPHERE   2 =  13.1297    (RMT=  2.4300 )
:PCS002: PARTIAL CHARGES SPHERE =  2 S,P,D,F,      D-EG,D-T2G 
:QTL002: 0.4574 6.4842 6.1192 0.0503 0.0000 0.0000 0.0000 2.3566 3.7627 0.0000 0.0000 0.0000
        Q-s-low E-s-low   Q-p-low E-p-low   Q-d-low E-d-low   Q-f-low E-f-low
:EPL002:  0.0010 -2.7136    5.9903 -3.1806    0.0025 -2.7094    0.0011 -2.7100
        Q-s-hi  E-s-hi    Q-p-hi  E-p-hi    Q-d-hi  E-d-hi    Q-f-hi  E-f-hi 
:EPH002:  0.4564  0.3109    0.4939  0.4542    6.1167  0.5787    0.0492  0.5182

:POS003: ATOM    3 X,Y,Z = 0.25000 0.25000 0.25000  MULT= 2  ZZ= 45.000  Rh1       

       LMMAX  6
       LM=   0 0  4 0  4 4  6 0  6 4 -3 2

:CHA003: TOTAL VALENCE CHARGE INSIDE SPHERE   3 =  13.5200    (RMT=  2.4300 )
:PCS003: PARTIAL CHARGES SPHERE =  3 S,P,D,F,      D-EG,D-T2G 
:QTL003: 0.3680 6.3268 6.7710 0.0430 0.0000 0.0000 0.0000 2.6853 4.0857 0.0000 0.0000 0.0000
        Q-s-low E-s-low   Q-p-low E-p-low   Q-d-low E-d-low   Q-f-low E-f-low
:EPL003:  0.0003 -3.1127    5.9604 -2.7054    0.0008 -3.1220    0.0004 -3.1189
        Q-s-hi  E-s-hi    Q-p-hi  E-p-hi    Q-d-hi  E-d-hi    Q-f-hi  E-f-hi 
:EPH003:  0.3677  0.3294    0.3663  0.4846    6.7702  0.4922    0.0426  0.5655

:CHA  : TOTAL VALENCE CHARGE INSIDE UNIT CELL =      58.000000

:SUM  : SUM OF EIGENVALUES =         -53.439297833


        1.ATOM      Fe1                   5 CORE STATES
:1S 001: 1S                -513.088752766 Ry
:2S 001: 2S                 -58.995960965 Ry
:2PP001: 2P*                -50.700302651 Ry
:2P 001: 2P                 -49.782708397 Ry
:3S 001: 3S                  -5.671560324 Ry

        2.ATOM      Fe2                   5 CORE STATES
:1S 002: 1S                -513.088753614 Ry
:2S 002: 2S                 -58.995961775 Ry
:2PP002: 2P*                -50.700303469 Ry
:2P 002: 2P                 -49.782709215 Ry
:3S 002: 3S                  -5.671560891 Ry

        3.ATOM      Rh1                  10 CORE STATES
:1S 003: 1S               -1691.444292470 Ry
:2S 003: 2S                -244.333270170 Ry
:2PP003: 2P*               -226.144112606 Ry
:2P 003: 2P                -215.514643415 Ry
:3S 003: 3S                 -42.855247553 Ry
:3PP003: 3P*                -35.737546739 Ry
:3P 003: 3P                 -33.908499509 Ry
:3DD003: 3D*                -21.312077619 Ry
:3D 003: 3D                 -20.951298870 Ry
:4S 003: 4S                  -5.062483996 Ry
:CINT001 Core Integral Atom   1   11.999239
:CINT002 Core Integral Atom   2   11.999239
:CINT003 Core Integral Atom   3   29.997397

       DENSITY AT NUCLEUS
        JATOM        VALENCE       SEMI-CORE          CORE           TOTAL
:RTO001:   1        6.680964        0.000000    15302.677682    15309.358645
:RTO002:   2        6.680964        0.000000    15302.677688    15309.358651
:RTO003:   3       23.909314        0.000000   155314.601324   155338.510638
     
       CHARGES OF NEW CHARGE DENSITY
:NTO   : INTERSTITIAL CHARGE =     4.700555
:NPC   : PW Pseudocharge     =    11.096726
:NTO001: CHARGE SPHERE  1    =    25.128904
:NTO002: CHARGE SPHERE  2    =    25.128935
:NTO003: CHARGE SPHERE  3    =    43.517406

:NEC01: NUCLEAR AND ELECTRONIC CHARGE    142.00000   141.99321
     
       CHARGES OF OLD CHARGE DENSITY
:OTO   : INTERSTITIAL CHARGE =     4.082931
:OPC   : PW Pseudocharge     =    11.809186
:OTO001: CHARGE SPHERE  1    =    25.251762
:OTO002: CHARGE SPHERE  2    =    25.251762
:OTO003: CHARGE SPHERE  3    =    43.706773

:NEC02: NUCLEAR AND ELECTRONIC CHARGE    142.00000   142.00000
     
       CONVERGENCE TEST
:DTO001: DIFFERENCE IN SPHERE  1 =  0.3388516
:DTO002: DIFFERENCE IN SPHERE  2 =  0.3388172
:DTO003: DIFFERENCE IN SPHERE  3 =  0.2467415

:DIS  :  CHARGE DISTANCE       ( 0.3388516 for atom    1 spin 1)      0.2927879
 PW Mixed is           49
 
******************************************************
* MULTISECANT MIXING VER9 RELEASE 10.4.0              *
* Standard Mode with controls                        *
* Fixed density scale                                *
* Regularization       1.000E-04                     *
* Trust Upper Limit    5.000E+00                     *
* Max Number of Memory Steps    8                    *
******************************************************
 
:PWTMP   1.1765E+02  4.5917E+02  3.5807E+02
:PLANE:  PW TOTAL      1.8077 DISTAN   2.99E-01  1.66E+01 %
:CHARG:  CLM/ATOM    299.8703 DISTAN   2.03E-01  6.76E-02 %
 
Step History
        DMIX         DMIXT        Red     Pred      Trust     Lambda    MagRel    MagAbs     Beta
  1   3.5000E-02   3.5000E-02 -1.00E+00  1.00E+00 -1.00E+01  1.00E+00  3.50E-02  3.50E-02  1.00E+00
  2   2.5000E-02   2.5000E-02  5.92E-01  1.00E+00 -1.00E+01  1.00E+00  2.50E-02  5.94E-02  1.00E+00
  3   3.7179E-02   3.7179E-02  9.43E-01  1.00E+00 -1.00E+01  1.14E-01  3.72E-02  5.23E-02  1.00E+00
  4   5.5699E-02   5.5699E-02  8.39E-01  9.82E-01  2.52E-01  1.51E+00  6.38E-02  8.46E-02  9.26E-01
  5   1.3925E-01   1.0604E-01 -1.00E+00  5.91E-01  3.76E-01  1.00E+00  1.59E-01  1.76E-01  1.00E+00
:JACOBIANS    9.454E-01   2.418E-01
  
:NORMS:  1/Froebius, Min, Max, Used   0.5667E+00  0.3575E+00  0.9972E+00  0.5727E+00
:INFO :  Number of Memory Steps    4 Skipping    0
:INFO :  SLambda=    1.8758524696  Max    1.8758524696
:PREDicted Charge, CTotal, PW Trust    1.675E-01   3.668E-01   5.831E-02
:PREDicted DMix, Beta, BLim   8.3363E-02  1.3909E+00  4.9021E-01

Eigenvalues, unscaled except for SY+YY
   #     SY Real        SY Imag          SS             YY         SY+YY Real      SY+YY Imag
   1   1.238756E+00   0.000000E+00   1.055387E+00   3.217489E+00   5.281423E+00   0.000000E+00
   2   4.871870E-01   0.000000E+00   2.290297E-01   7.459601E-01   1.917966E+00   0.000000E+00
   3   7.089116E-15   0.000000E+00   4.056738E-04   3.633881E-02   2.452471E-04   0.000000E+00
   4   1.836790E-03   0.000000E+00   4.040462E-17   2.119270E-04   4.142509E-02   0.000000E+00
 
:INFO :  Singular value  5.282E+00 Weight  1.000E+00 Projection -2.276E-01
:INFO :  Singular value  1.918E+00 Weight  1.000E+00 Projection -3.187E-01
:INFO :  Singular value  4.142E-02 Weight  9.999E-01 Projection  1.612E+00
:INFO :  Singular value  2.452E-04 Weight  3.675E-01 Projection -2.815E+00
:RANK :  ACTIVE   3.37/4  =  84.19 % ; YY RANK   3.30/4  =  82.56 %
 
Increasing Charge by   1.682
:BLIM :  VZERO Control Off
:TRUST:  Step 5.01E-01  Charge 1.53E-01 (e) CTO  3.03E-01 (e) PW  3.85E-01 (e)
:DIRM :  MEMORY  4/8  SCALE   1.000 RED  0.61 PRED  0.59 NEXT  0.57 
:TRAVE:  Charge 6.81E-02 (e) CTO  1.60E-01 (e) PW  3.58E-02 (e)
:DIRP :  |MSR1|= 1.007E-01 |PRATT|= 2.994E-01 ANGLE=  17.3 DEGREES
:DIRQ :  |MSR1|= 1.852E-01 |PRATT|= 6.078E-01 ANGLE=  12.8 DEGREES
:DIRT :  |MSR1|= 2.108E-01 |PRATT|= 6.775E-01 ANGLE=  14.1 DEGREES
:MIX  :   MSE1   REGULARIZATION:  3.22E-04 GREED: 0.08765  Newton 1.00  0.3111                
     
       CHARGES OF MIXED CHARGE DENSITY
:CTO   : INTERSTITIAL CHARGE =     4.283880
:CPC   : PW Pseudocharge     =    11.725081
:CTO001: CHARGE SPHERE  1    =    25.232621
:CTO002: CHARGE SPHERE  2    =    25.232625
:CTO003: CHARGE SPHERE  3    =    43.625437

:NEC03: NUCLEAR AND ELECTRONIC CHARGE    142.00000   142.00000

PW CHANGE     H    K    L      Current       Change    Residue
:PTO001:      0    0    0  4.47089820E-02  3.263E-04 -2.011E-04
:PTO002:     -1   -1   -1 -3.17322746E-09 -3.445E-09 -2.987E-08
:PTO003:      0    0   -2 -1.58844769E-02  7.692E-04  3.729E-03
:PTO004:      0   -2   -2  3.30658813E-03  5.875E-04 -4.671E-03
:PTO005:     -1   -1   -3  6.97692677E-11 -5.749E-11 -1.120E-09
:PTO006:     -2   -2   -2  4.70211954E-03 -7.379E-04 -1.290E-03
:PTO007:      0    0   -4 -1.57506949E-02  2.337E-03  5.960E-03
:PTO008:     -1   -3   -3  4.58569743E-09  5.078E-09  4.447E-08
:PTO009:      0   -2   -4  1.75258987E-02 -3.248E-03 -9.073E-03
:PTO010:     -2   -2   -4 -3.96006105E-02  9.794E-03  2.902E-02
:PTO011:     -3   -3   -3  9.39946677E-10  8.379E-10  6.435E-09
:PTO012:     -1   -1   -5 -4.14832302E-10  5.929E-12  2.132E-09

:ENE  : ********** TOTAL ENERGY IN Ry =       -24232.10320458

 Flat Integration
 New Mode for Coulomb Integral
 Consistent 3/8+Simpson combinations
 Extension of core to zero
 LDM version in phi
 Fifth-order quadrature in outwin


            ---------
:ITE006:  6. ITERATION
            ---------

:NATO :    3 INDEPENDENT AND    4 TOTAL ATOMS IN UNITCELL
       SUBSTANCE: FeRh                                                        

       LATTICE                      = F   
:POT  : POTENTIAL OPTION EX_PBE EC_PBE VX_PBE VC_PBE
:LAT  : LATTICE CONSTANTS= 11.27222 11.27222 11.27222    1.571    1.571    1.571
:VOL  : UNIT CELL VOLUME =     358.07036
       MODE OF CALCULATION IS       = RELA
       NON-SPINPOLARIZED CALCULATION
:IFFT  : FFT-parameters:   90   90   90 Factor: 2.00


   CONVERGENCE PARAMETER FOR PSEUDOCHARGE: NCON=  9
   MAXIMAL VALUE OF RMT(JATOM)*ABSK(NKK) : RK  =29.05063


:VKCOUL :  VK-COUL convergence: 0.622E-07
       ATOMNUMBER=  1 Fe1        VCOUL-ZERO =  0.64250E+00
       ATOMNUMBER=  2 Fe2        VCOUL-ZERO =  0.64250E+00
       ATOMNUMBER=  3 Rh1        VCOUL-ZERO =  0.59500E+00
:FIT001: LUSE= 13 SIGMA OF V-XC FIT FOR ATOM  1  0.2890535E-02
:FIT001: LUSE= 13 SIGMA OF V-XC FIT FOR ATOM  1  0.2890535E-02
:FIT002: LUSE= 13 SIGMA OF V-XC FIT FOR ATOM  2  0.2890537E-02
:FIT002: LUSE= 13 SIGMA OF V-XC FIT FOR ATOM  2  0.2890537E-02
:FIT003: LUSE= 13 SIGMA OF V-XC FIT FOR ATOM  3  0.3189294E-03
:FIT003: LUSE= 13 SIGMA OF V-XC FIT FOR ATOM  3  0.3189294E-03
:DEN  : DENSITY INTEGRAL  =         -9855.56042082   (Ry)
       ELS_POTENTIAL_AT Z=0 and Z=0.5:  -0.16587  -0.16587
       ELS_POTENTIAL_AT Y=0 and Y=0.5:   0.00000   0.00000
:VZERO:v0,v0c,v0x  -0.76750  -0.16587  -0.60164 v5,v5c,v5x  -0.76750  -0.16587  -0.60164
:VZERY:v0,v0c,v0x  -0.79587   0.00000  -0.79587 v5,v5c,v5x  -0.79587   0.00000  -0.79587
:VZERX:v0,v0c,v0x  -0.79587   0.00000  -0.79587 v5,v5c,v5x  -0.79587   0.00000  -0.79587
:LMAX-WF:   10   Non-Spherical LMAX:   4

          ATOMIC SPHERE DEPENDENT PARAMETERS FOR ATOM  Fe1       
:e__0001: OVERALL ENERGY PARAMETER IS    0.5161
          OVERALL BASIS SET ON ATOM IS LAPW
:E1_0001: E( 1)=    0.5161
             APW+lo
:E1_0001: E( 1)=   -3.2527   E(BOTTOM)=   -3.284   E(TOP)=   -3.222  1  2   172
             LOCAL ORBITAL
:E2_0001: E( 2)=    0.5532   E(BOTTOM)=    0.326   E(TOP)=    0.780  0  1   118
             APW+lo
:E0_0001: E( 0)=    0.5161
             APW+lo

          ATOMIC SPHERE DEPENDENT PARAMETERS FOR ATOM  Fe2       
:e__0002: OVERALL ENERGY PARAMETER IS    0.5161
          OVERALL BASIS SET ON ATOM IS LAPW
:E1_0002: E( 1)=    0.5161
             APW+lo
:E1_0002: E( 1)=   -3.2527   E(BOTTOM)=   -3.284   E(TOP)=   -3.222  1  2   173
             LOCAL ORBITAL
:E2_0002: E( 2)=    0.5532   E(BOTTOM)=    0.326   E(TOP)=    0.780  0  1   124
             APW+lo
:E0_0002: E( 0)=    0.5161
             APW+lo

          ATOMIC SPHERE DEPENDENT PARAMETERS FOR ATOM  Rh1       
:e__0003: OVERALL ENERGY PARAMETER IS    0.5161
          OVERALL BASIS SET ON ATOM IS LAPW
:E1_0003: E( 1)=    0.5161
             APW+lo
:E1_0003: E( 1)=   -2.7904   E(BOTTOM)=   -2.883   E(TOP)=   -2.698  2  3   151
             LOCAL ORBITAL
:E2_0003: E( 2)=    0.5040   E(BOTTOM)=    0.075   E(TOP)=    0.933  1  2   145
             APW+lo
:E0_0003: E( 0)=    0.5161
             APW+lo

       K=   0.00000   0.00000   0.00000            1
:RKM  : MATRIX SIZE   185LOs:  48  RKM= 6.64  WEIGHT= 1.00  PGR:    
       EIGENVALUES ARE:
:EIG00001:      -3.2470660   -3.2470660   -3.2470660   -3.2454584   -3.2454584
:EIG00006:      -3.2454584   -2.7742790   -2.7742790   -2.7742790   -2.7674101
:EIG00011:      -2.7674101   -2.7674101    0.0664612    0.2804078    0.2804078
:EIG00016:       0.3451070    0.3451070    0.3451070    0.4890211    0.4890211
:EIG00021:       0.4890211    0.4911619    0.4911619    0.4911619    0.6322434
:EIG00026:       0.6322434    0.6517301    0.6517301    0.6588475    0.6588475
:EIG00031:       0.7119246    0.7119246    0.7119246    1.2550101    1.2840903
:EIG00036:       1.2840903    1.2840903    1.3203652    1.3203652    1.3203652
:EIG00041:       1.3921152    1.3921152    1.3921152    1.4620521    1.9478829
:EIG00046:       1.9478829    2.0532402    2.1532574    2.1532574    2.1532574
 
       ********************************************************

:KPT   :      NUMBER OF K-POINTS:    20
:GAP (global)   :    0.0    Ry =     0.0   eV (metal)
         Bandranges (emin - emax) and occupancy:
:BAN00021:  21    0.429630    0.490506  2.00000000
:BAN00022:  22    0.433132    0.531457  2.00000000
:BAN00023:  23    0.433132    0.563945  2.00000000
:BAN00024:  24    0.461165    0.578758  2.00000000
:BAN00025:  25    0.571550    0.632243  2.00000000
:BAN00026:  26    0.585293    0.638616  2.00000000
:BAN00027:  27    0.597985    0.651730  1.99281166
:BAN00028:  28    0.615789    0.651730  1.98868621
:BAN00029:  29    0.625944    0.669052  1.62910886
:BAN00030:  30    0.636474    0.674322  0.38600060
:BAN00031:  31    0.646874    0.711925  0.00339267
:BAN00032:  32    0.656490    0.712965  0.00000000
:BAN00033:  33    0.665155    0.727233  0.00000000
:BAN00034:  34    0.719751    1.255010  0.00000000
:BAN00035:  35    0.752336    1.284090  0.00000000
:BAN00036:  36    0.786046    1.284090  0.00000000
        Energy to separate low and high energystates:    0.01646


:NOE  : NUMBER OF ELECTRONS          =   58.000

:FER  : F E R M I - ENERGY(TETRAH.M.)=   0.6474614406
:GMA  : POTENTIAL AND CHARGE CUT-OFF  12.00 Ry**.5

:POS001: ATOM    1 X,Y,Z = 0.00000 0.00000 0.00000  MULT= 1  ZZ= 26.000  Fe1       

       LMMAX  5
       LM=   0 0  4 0  4 4  6 0  6 4

:CHA001: TOTAL VALENCE CHARGE INSIDE SPHERE   1 =  13.2459    (RMT=  2.4300 )
:PCS001: PARTIAL CHARGES SPHERE =  1 S,P,D,F,      D-EG,D-T2G 
:QTL001: 0.4419 6.4339 6.3052 0.0468 0.0000 0.0000 0.0000 2.4914 3.8138 0.0000 0.0000 0.0000
        Q-s-low E-s-low   Q-p-low E-p-low   Q-d-low E-d-low   Q-f-low E-f-low
:EPL001:  0.0009 -2.7793    5.9908 -3.2460    0.0024 -2.7752    0.0010 -2.7760
        Q-s-hi  E-s-hi    Q-p-hi  E-p-hi    Q-d-hi  E-d-hi    Q-f-hi  E-f-hi 
:EPH001:  0.4410  0.2873    0.4431  0.4131    6.3028  0.5328    0.0458  0.4732

:POS002: ATOM    2 X,Y,Z = 0.50000 0.00000 0.00000  MULT= 1  ZZ= 26.000  Fe2       

       LMMAX  5
       LM=   0 0  4 0  4 4  6 0  6 4

:CHA002: TOTAL VALENCE CHARGE INSIDE SPHERE   2 =  13.2461    (RMT=  2.4300 )
:PCS002: PARTIAL CHARGES SPHERE =  2 S,P,D,F,      D-EG,D-T2G 
:QTL002: 0.4419 6.4339 6.3054 0.0468 0.0000 0.0000 0.0000 2.4917 3.8137 0.0000 0.0000 0.0000
        Q-s-low E-s-low   Q-p-low E-p-low   Q-d-low E-d-low   Q-f-low E-f-low
:EPL002:  0.0009 -2.7793    5.9908 -3.2460    0.0024 -2.7752    0.0010 -2.7760
        Q-s-hi  E-s-hi    Q-p-hi  E-p-hi    Q-d-hi  E-d-hi    Q-f-hi  E-f-hi 
:EPH002:  0.4410  0.2873    0.4431  0.4131    6.3030  0.5328    0.0458  0.4732

:POS003: ATOM    3 X,Y,Z = 0.25000 0.25000 0.25000  MULT= 2  ZZ= 45.000  Rh1       

       LMMAX  6
       LM=   0 0  4 0  4 4  6 0  6 4 -3 2

:CHA003: TOTAL VALENCE CHARGE INSIDE SPHERE   3 =  13.5472    (RMT=  2.4300 )
:PCS003: PARTIAL CHARGES SPHERE =  3 S,P,D,F,      D-EG,D-T2G 
:QTL003: 0.3574 6.2888 6.8512 0.0390 0.0000 0.0000 0.0000 2.7219 4.1293 0.0000 0.0000 0.0000
        Q-s-low E-s-low   Q-p-low E-p-low   Q-d-low E-d-low   Q-f-low E-f-low
:EPL003:  0.0003 -3.1793    5.9622 -2.7714    0.0007 -3.1885    0.0004 -3.1850
        Q-s-hi  E-s-hi    Q-p-hi  E-p-hi    Q-d-hi  E-d-hi    Q-f-hi  E-f-hi 
:EPH003:  0.3571  0.3041    0.3266  0.4433    6.8505  0.4486    0.0387  0.5187

:CHA  : TOTAL VALENCE CHARGE INSIDE UNIT CELL =      58.000000

:SUM  : SUM OF EIGENVALUES =         -56.409000490


        1.ATOM      Fe1                   5 CORE STATES
:1S 001: 1S                -513.197566944 Ry
:2S 001: 2S                 -59.104378138 Ry
:2PP001: 2P*                -50.809395272 Ry
:2P 001: 2P                 -49.891725592 Ry
:3S 001: 3S                  -5.740559320 Ry

        2.ATOM      Fe2                   5 CORE STATES
:1S 002: 1S                -513.197560744 Ry
:2S 002: 2S                 -59.104372140 Ry
:2PP002: 2P*                -50.809389221 Ry
:2P 002: 2P                 -49.891719547 Ry
:3S 002: 3S                  -5.740555076 Ry

        3.ATOM      Rh1                  10 CORE STATES
:1S 003: 1S               -1691.552816197 Ry
:2S 003: 2S                -244.440812688 Ry
:2PP003: 2P*               -226.252159207 Ry
:2P 003: 2P                -215.622577243 Ry
:3S 003: 3S                 -42.952318383 Ry
:3PP003: 3P*                -35.834884911 Ry
:3P 003: 3P                 -34.005447362 Ry
:3DD003: 3D*                -21.410227402 Ry
:3D 003: 3D                 -21.049311798 Ry
:4S 003: 4S                  -5.134177347 Ry
:CINT001 Core Integral Atom   1   11.999272
:CINT002 Core Integral Atom   2   11.999272
:CINT003 Core Integral Atom   3   29.997495

       DENSITY AT NUCLEUS
        JATOM        VALENCE       SEMI-CORE          CORE           TOTAL
:RTO001:   1        6.413937        0.000000    15303.566629    15309.980565
:RTO002:   2        6.413937        0.000000    15303.566589    15309.980525
:RTO003:   3       23.123987        0.000000   155317.190921   155340.314908
     
       CHARGES OF NEW CHARGE DENSITY
:NTO   : INTERSTITIAL CHARGE =     4.413409
:NPC   : PW Pseudocharge     =    10.650618
:NTO001: CHARGE SPHERE  1    =    25.245190
:NTO002: CHARGE SPHERE  2    =    25.245386
:NTO003: CHARGE SPHERE  3    =    43.544742

:NEC01: NUCLEAR AND ELECTRONIC CHARGE    142.00000   141.99347
     
       CHARGES OF OLD CHARGE DENSITY
:OTO   : INTERSTITIAL CHARGE =     4.283880
:OPC   : PW Pseudocharge     =    11.725081
:OTO001: CHARGE SPHERE  1    =    25.232621
:OTO002: CHARGE SPHERE  2    =    25.232625
:OTO003: CHARGE SPHERE  3    =    43.625437

:NEC02: NUCLEAR AND ELECTRONIC CHARGE    142.00000   142.00000
     
       CONVERGENCE TEST
:DTO001: DIFFERENCE IN SPHERE  1 =  0.1640875
:DTO002: DIFFERENCE IN SPHERE  2 =  0.1642298
:DTO003: DIFFERENCE IN SPHERE  3 =  0.1117308

:DIS  :  CHARGE DISTANCE       ( 0.1642298 for atom    2 spin 1)      0.1379447
 PW Mixed is           49
 
******************************************************
* MULTISECANT MIXING VER9 RELEASE 10.4.0              *
* Standard Mode with controls                        *
* Fixed density scale                                *
* Regularization       1.000E-04                     *
* Trust Upper Limit    5.000E+00                     *
* Max Number of Memory Steps    8                    *
******************************************************
 
:PWTMP   1.1765E+02  4.5917E+02  3.5807E+02
:PLANE:  PW TOTAL      1.7922 DISTAN   2.23E-01  1.24E+01 %
:CHARG:  CLM/ATOM    299.8644 DISTAN   1.02E-01  3.40E-02 %
 
Step History
        DMIX         DMIXT        Red     Pred      Trust     Lambda    MagRel    MagAbs     Beta
  1   3.5000E-02   3.5000E-02 -1.00E+00  1.00E+00 -1.00E+01  1.00E+00  3.50E-02  3.50E-02  1.00E+00
  2   2.5000E-02   2.5000E-02  5.92E-01  1.00E+00 -1.00E+01  1.00E+00  2.50E-02  5.94E-02  1.00E+00
  3   3.7179E-02   3.7179E-02  9.43E-01  1.00E+00 -1.00E+01  1.14E-01  3.72E-02  5.23E-02  1.00E+00
  4   5.5699E-02   5.5699E-02  8.39E-01  9.82E-01  2.52E-01  1.51E+00  6.38E-02  8.46E-02  9.26E-01
  5   1.3925E-01   1.0604E-01  6.09E-01  5.91E-01  3.76E-01  1.88E+00  1.59E-01  1.76E-01  1.00E+00
  6   8.7655E-02   8.7655E-02 -1.00E+00  5.72E-01  5.01E-01  1.00E+00  3.11E-01  2.11E-01  1.00E+00
:JACOBIANS    1.001E+00   3.268E-01
  
:NORMS:  1/Froebius, Min, Max, Used   0.4661E+00  0.3500E+00  0.9974E+00  0.4661E+00
:INFO :  Number of Memory Steps    5 Skipping    0
:INFO :  SLambda=    2.3711799306  Max    2.3711799306
:PREDicted Charge, CTotal, PW Trust    8.687E-02   2.297E-01   6.784E-02
:PREDicted DMix, Beta, BLim   1.1954E-01  9.6866E-01  3.6531E-01

Eigenvalues, unscaled except for SY+YY
[...]
  4   5.5699E-02   5.5699E-02  8.39E-01  9.82E-01  2.52E-01  1.51E+00  6.38E-02  8.46E-02  9.26E-01
  5   1.3925E-01   1.0604E-01  6.09E-01  5.91E-01  3.76E-01  1.88E+00  1.59E-01  1.76E-01  1.00E+00
  6   8.7655E-02   8.7655E-02  5.59E-01  5.72E-01  5.01E-01  2.37E+00  3.11E-01  2.11E-01  1.00E+00
  7   1.0467E-01   1.0467E-01  5.69E-01  7.55E-01  6.68E-01  1.42E+00  3.59E-01  1.36E-01  9.76E-01
  8   2.5825E-01   2.5825E-01  8.39E-01  3.85E-01  1.81E+00  1.84E+00  7.73E-01  1.67E-01  1.00E+00
  9   1.1028E-01   1.1028E-01  1.67E+00  4.53E-01  3.45E+00  2.25E+00  5.07E-02  9.15E-03  9.67E-01
 10   1.5546E-01   1.5546E-01  2.61E-01  1.71E-01  1.92E+00  2.44E+00  9.49E-02  2.85E-02  1.00E+00
 11   2.4860E-01   2.4860E-01 -1.00E+00  2.27E-01  2.56E+00  1.00E+00  3.50E-01  2.75E-02  1.00E+00
:JACOBIANS    1.365E+00   1.442E+00
  
:NORMS:  1/Froebius, Min, Max, Used   0.5437E+00  0.3905E+00  0.9329E+00  0.7620E+00
:INFO :  Number of Memory Steps    8 Skipping    2
:INFO :  SLambda=    2.5605377535  Max    2.5605377535
:PREDicted Charge, CTotal, PW Trust    8.935E-03   1.516E-02   1.456E-02
:PREDicted DMix, Beta, BLim   9.8821E-02  1.0254E+00  3.5480E+00

Eigenvalues, unscaled except for SY+YY
   #     SY Real        SY Imag          SS             YY         SY+YY Real      SY+YY Imag
   1   2.006599E+00   0.000000E+00   1.989931E+00   3.426765E+00   8.212478E+00   0.000000E+00
   2   5.922164E-01   0.000000E+00   2.369102E-01   1.995051E+00   3.280175E+00   0.000000E+00
   3   2.228808E-01   0.000000E+00   1.338503E-01   1.204820E+00   1.944705E+00   0.000000E+00
   4   4.339892E-02   0.000000E+00   2.175284E-03   1.057105E+00   8.045429E-01   0.000000E+00
   5   1.552782E-02   0.000000E+00   1.310396E-03   3.080583E-01   1.125532E+00   0.000000E+00
   6   1.858001E-03   0.000000E+00   2.758356E-04   6.409791E-03   1.032064E-02   0.000000E+00
   7   5.155853E-05   0.000000E+00   7.632218E-05   1.543797E-03   4.090595E-04   0.000000E+00
   8   3.782069E-04   0.000000E+00   8.280071E-06   2.461383E-04   3.638663E-03   0.000000E+00
 
:INFO :  Singular value  8.292E+00 Weight  1.000E+00 Projection -2.814E-03
:INFO :  Singular value  3.277E+00 Weight  1.000E+00 Projection  9.285E-03
:INFO :  Singular value  1.947E+00 Weight  1.000E+00 Projection  4.850E-02
:INFO :  Singular value  1.128E+00 Weight  1.000E+00 Projection -6.928E-03
:INFO :  Singular value  7.952E-01 Weight  1.000E+00 Projection  8.832E-03
:INFO :  Singular value  1.035E-02 Weight  9.989E-01 Projection  9.297E-02
:INFO :  Singular value  3.636E-03 Weight  9.912E-01 Projection  2.849E-01
:INFO :  Singular value  4.082E-04 Weight  5.866E-01 Projection -8.979E-02
:RANK :  ACTIVE   7.58/8  =  94.71 % ; YY RANK   7.29/8  =  91.13 %
 
:BLIM :  VZERO Control Off
:TRUST:  Step 2.94E+00  Charge 6.38E-02 (e) CTO  1.76E-01 (e) PW  1.84E-01 (e)
:DIRM :  MEMORY  8/8  SCALE   1.000 RED  0.93 PRED  0.23 NEXT  0.19 
:TRAVE:  Charge 5.61E-03 (e) CTO  1.27E-02 (e) PW  1.43E-02 (e)
:DIRP :  |MSR1|= 1.912E-03 |PRATT|= 1.827E-03 ANGLE=  96.8 DEGREES
:DIRQ :  |MSR1|= 3.447E-03 |PRATT|= 7.291E-02 ANGLE=  57.7 DEGREES
:DIRT :  |MSR1|= 3.942E-03 |PRATT|= 7.293E-02 ANGLE=  62.2 DEGREES
:MIX  :   MSE1   REGULARIZATION:  3.43E-04 GREED: 0.14899  Newton 1.00  0.0541                
     
       CHARGES OF MIXED CHARGE DENSITY
:CTO   : INTERSTITIAL CHARGE =     4.435741
:CPC   : PW Pseudocharge     =    10.703555
:CTO001: CHARGE SPHERE  1    =    25.196576
:CTO002: CHARGE SPHERE  2    =    25.196064
:CTO003: CHARGE SPHERE  3    =    43.585810

:NEC03: NUCLEAR AND ELECTRONIC CHARGE    142.00000   142.00000

PW CHANGE     H    K    L      Current       Change    Residue
:PTO001:      0    0    0  4.22802262E-02  1.465E-05  3.861E-06
:PTO002:     -1   -1   -1  2.44367759E-06 -4.099E-07 -5.397E-05
:PTO003:      0    0   -2 -1.32917440E-02 -3.577E-05  6.246E-05
:PTO004:      0   -2   -2 -2.13631774E-04  1.416E-04 -8.882E-06
:PTO005:     -1   -1   -3 -9.27245563E-07 -1.805E-07 -2.401E-06
:PTO006:     -2   -2   -2  4.35589019E-03 -1.759E-05 -3.959E-05
:PTO007:      0    0   -4 -1.18308307E-02  3.193E-05 -1.756E-05
:PTO008:     -1   -3   -3 -1.41501541E-06  6.138E-07  7.853E-05
:PTO009:      0   -2   -4  1.19449087E-02 -1.624E-05 -2.210E-05
:PTO010:     -2   -2   -4 -2.04759110E-02  5.799E-05  2.959E-05
:PTO011:     -3   -3   -3 -2.82816968E-06 -2.449E-07  9.555E-06
:PTO012:     -1   -1   -5  6.27799417E-06  7.652E-07  7.148E-06

:ENE  : ********** TOTAL ENERGY IN Ry =       -24232.07499202

 Flat Integration
 New Mode for Coulomb Integral
 Consistent 3/8+Simpson combinations
 Extension of core to zero
 LDM version in phi
 Fifth-order quadrature in outwin


            ---------
:ITE012: 12. ITERATION
            ---------

:NATO :    3 INDEPENDENT AND    4 TOTAL ATOMS IN UNITCELL
       SUBSTANCE: FeRh                                                        

       LATTICE                      = F   
:POT  : POTENTIAL OPTION EX_PBE EC_PBE VX_PBE VC_PBE
:LAT  : LATTICE CONSTANTS= 11.27222 11.27222 11.27222    1.571    1.571    1.571
:VOL  : UNIT CELL VOLUME =     358.07036
       MODE OF CALCULATION IS       = RELA
       NON-SPINPOLARIZED CALCULATION
:IFFT  : FFT-parameters:   90   90   90 Factor: 2.00


   CONVERGENCE PARAMETER FOR PSEUDOCHARGE: NCON=  9
   MAXIMAL VALUE OF RMT(JATOM)*ABSK(NKK) : RK  =29.05063


:VKCOUL :  VK-COUL convergence: 0.817E-07
       ATOMNUMBER=  1 Fe1        VCOUL-ZERO =  0.61811E+00
       ATOMNUMBER=  2 Fe2        VCOUL-ZERO =  0.61799E+00
       ATOMNUMBER=  3 Rh1        VCOUL-ZERO =  0.57187E+00
:FIT001: LUSE= 13 SIGMA OF V-XC FIT FOR ATOM  1  0.2201079E-02
:FIT001: LUSE= 13 SIGMA OF V-XC FIT FOR ATOM  1  0.2201079E-02
:FIT002: LUSE= 13 SIGMA OF V-XC FIT FOR ATOM  2  0.2198773E-02
:FIT002: LUSE= 13 SIGMA OF V-XC FIT FOR ATOM  2  0.2198773E-02
:FIT003: LUSE= 13 SIGMA OF V-XC FIT FOR ATOM  3  0.1010037E-02
:FIT003: LUSE= 13 SIGMA OF V-XC FIT FOR ATOM  3  0.1010037E-02
:DEN  : DENSITY INTEGRAL  =         -9853.87954378   (Ry)
       ELS_POTENTIAL_AT Z=0 and Z=0.5:  -0.16368  -0.16368
       ELS_POTENTIAL_AT Y=0 and Y=0.5:   0.00000   0.00000
:VZERO:v0,v0c,v0x  -0.80749  -0.16368  -0.64382 v5,v5c,v5x  -0.80749  -0.16368  -0.64382
:VZERY:v0,v0c,v0x  -0.78916   0.00000  -0.78916 v5,v5c,v5x  -0.78916   0.00000  -0.78916
:VZERX:v0,v0c,v0x  -0.78916   0.00000  -0.78916 v5,v5c,v5x  -0.78916   0.00000  -0.78916
:LMAX-WF:   10   Non-Spherical LMAX:   4

          ATOMIC SPHERE DEPENDENT PARAMETERS FOR ATOM  Fe1       
:e__0001: OVERALL ENERGY PARAMETER IS    0.4187
          OVERALL BASIS SET ON ATOM IS LAPW
:E1_0001: E( 1)=    0.4187
             APW+lo
:E1_0001: E( 1)=   -3.2801   E(BOTTOM)=   -3.311   E(TOP)=   -3.249  1  2   167
             LOCAL ORBITAL
:E2_0001: E( 2)=    0.5245   E(BOTTOM)=    0.297   E(TOP)=    0.752  0  1   121
             APW+lo
:E0_0001: E( 0)=    0.4187
             APW+lo

          ATOMIC SPHERE DEPENDENT PARAMETERS FOR ATOM  Fe2       
:e__0002: OVERALL ENERGY PARAMETER IS    0.4187
          OVERALL BASIS SET ON ATOM IS LAPW
:E1_0002: E( 1)=    0.4187
             APW+lo
:E1_0002: E( 1)=   -3.2806   E(BOTTOM)=   -3.312   E(TOP)=   -3.250  1  2   168
             LOCAL ORBITAL
:E2_0002: E( 2)=    0.5241   E(BOTTOM)=    0.296   E(TOP)=    0.752  0  1   127
             APW+lo
:E0_0002: E( 0)=    0.4187
             APW+lo

          ATOMIC SPHERE DEPENDENT PARAMETERS FOR ATOM  Rh1       
:e__0003: OVERALL ENERGY PARAMETER IS    0.4187
          OVERALL BASIS SET ON ATOM IS LAPW
:E1_0003: E( 1)=    0.4187
             APW+lo
:E1_0003: E( 1)=   -2.8194   E(BOTTOM)=   -2.912   E(TOP)=   -2.727  2  3   156
             LOCAL ORBITAL
:E2_0003: E( 2)=    0.4738   E(BOTTOM)=    0.044   E(TOP)=    0.903  1  2   142
             APW+lo
:E0_0003: E( 0)=    0.4187
             APW+lo

       K=   0.00000   0.00000   0.00000            1
:RKM  : MATRIX SIZE   185LOs:  48  RKM= 6.64  WEIGHT= 1.00  PGR:    
       EIGENVALUES ARE:
:EIG00001:      -3.2746684   -3.2746684   -3.2746684   -3.2729791   -3.2729791
:EIG00006:      -3.2729791   -2.8033071   -2.8033071   -2.8033071   -2.7964136
:EIG00011:      -2.7964136   -2.7964136    0.0346070    0.2499049    0.2499049
:EIG00016:       0.3137555    0.3137555    0.3137555    0.4584466    0.4584466
:EIG00021:       0.4584466    0.4611404    0.4611404    0.4611404    0.6033970
:EIG00026:       0.6033970    0.6218655    0.6218655    0.6305416    0.6305416
:EIG00031:       0.6829257    0.6829257    0.6829257    1.2230379    1.2540671
:EIG00036:       1.2540671    1.2540671    1.2879973    1.2879973    1.2879973
:EIG00041:       1.3618040    1.3618040    1.3618040    1.4306580    1.9182333
:EIG00046:       1.9182333    2.0244072
 
       ********************************************************

:KPT   :      NUMBER OF K-POINTS:    20
:GAP (global)   :    0.0    Ry =     0.0   eV (metal)
         Bandranges (emin - emax) and occupancy:
:BAN00021:  21    0.399040    0.459653  2.00000000
:BAN00022:  22    0.402619    0.500750  2.00000000
:BAN00023:  23    0.402619    0.533321  2.00000000
:BAN00024:  24    0.430305    0.549426  2.00000000
:BAN00025:  25    0.542434    0.603397  2.00000000
:BAN00026:  26    0.555954    0.609785  2.00000000
:BAN00027:  27    0.568623    0.621866  1.99585762
:BAN00028:  28    0.586533    0.621866  1.99405999
:BAN00029:  29    0.596783    0.640173  1.62424378
:BAN00030:  30    0.607774    0.644841  0.38394417
:BAN00031:  31    0.618000    0.682926  0.00189445
:BAN00032:  32    0.626645    0.683908  0.00000000
:BAN00033:  33    0.635944    0.698315  0.00000000
:BAN00034:  34    0.690643    1.223038  0.00000000
:BAN00035:  35    0.721967    1.254067  0.00000000
:BAN00036:  36    0.755214    1.254067  0.00000000
        Energy to separate low and high energystates:   -0.01539


:NOE  : NUMBER OF ELECTRONS          =   58.000

:FER  : F E R M I - ENERGY(TETRAH.M.)=   0.6183686583
:GMA  : POTENTIAL AND CHARGE CUT-OFF  12.00 Ry**.5

:POS001: ATOM    1 X,Y,Z = 0.00000 0.00000 0.00000  MULT= 1  ZZ= 26.000  Fe1       

       LMMAX  5
       LM=   0 0  4 0  4 4  6 0  6 4

:CHA001: TOTAL VALENCE CHARGE INSIDE SPHERE   1 =  13.2134    (RMT=  2.4300 )
:PCS001: PARTIAL CHARGES SPHERE =  1 S,P,D,F,      D-EG,D-T2G 
:QTL001: 0.4427 6.4358 6.2696 0.0471 0.0000 0.0000 0.0000 2.4731 3.7965 0.0000 0.0000 0.0000
        Q-s-low E-s-low   Q-p-low E-p-low   Q-d-low E-d-low   Q-f-low E-f-low
:EPL001:  0.0009 -2.8083    5.9907 -3.2733    0.0024 -2.8043    0.0010 -2.8051
        Q-s-hi  E-s-hi    Q-p-hi  E-p-hi    Q-d-hi  E-d-hi    Q-f-hi  E-f-hi 
:EPH001:  0.4418  0.2561    0.4451  0.3824    6.2672  0.5032    0.0461  0.4427

:POS002: ATOM    2 X,Y,Z = 0.50000 0.00000 0.00000  MULT= 1  ZZ= 26.000  Fe2       

       LMMAX  5
       LM=   0 0  4 0  4 4  6 0  6 4

:CHA002: TOTAL VALENCE CHARGE INSIDE SPHERE   2 =  13.2241    (RMT=  2.4300 )
:PCS002: PARTIAL CHARGES SPHERE =  2 S,P,D,F,      D-EG,D-T2G 
:QTL002: 0.4427 6.4359 6.2802 0.0471 0.0000 0.0000 0.0000 2.4721 3.8081 0.0000 0.0000 0.0000
        Q-s-low E-s-low   Q-p-low E-p-low   Q-d-low E-d-low   Q-f-low E-f-low
:EPL002:  0.0009 -2.8083    5.9907 -3.2738    0.0024 -2.8043    0.0010 -2.8051
        Q-s-hi  E-s-hi    Q-p-hi  E-p-hi    Q-d-hi  E-d-hi    Q-f-hi  E-f-hi 
:EPH002:  0.4418  0.2559    0.4452  0.3824    6.2778  0.5030    0.0461  0.4428

:POS003: ATOM    3 X,Y,Z = 0.25000 0.25000 0.25000  MULT= 2  ZZ= 45.000  Rh1       

       LMMAX  6
       LM=   0 0  4 0  4 4  6 0  6 4 -3 2

:CHA003: TOTAL VALENCE CHARGE INSIDE SPHERE   3 =  13.5655    (RMT=  2.4300 )
:PCS003: PARTIAL CHARGES SPHERE =  3 S,P,D,F,      D-EG,D-T2G 
:QTL003: 0.3582 6.2910 6.8661 0.0393 0.0000 0.0000 0.0000 2.7326 4.1335 0.0000 0.0000 0.0000
        Q-s-low E-s-low   Q-p-low E-p-low   Q-d-low E-d-low   Q-f-low E-f-low
:EPL003:  0.0003 -3.2072    5.9621 -2.8004    0.0007 -3.2164    0.0004 -3.2124
        Q-s-hi  E-s-hi    Q-p-hi  E-p-hi    Q-d-hi  E-d-hi    Q-f-hi  E-f-hi 
:EPH003:  0.3579  0.2730    0.3290  0.4131    6.8653  0.4183    0.0390  0.4892

:CHA  : TOTAL VALENCE CHARGE INSIDE UNIT CELL =      58.000000

:SUM  : SUM OF EIGENVALUES =         -58.120167646


        1.ATOM      Fe1                   5 CORE STATES
:1S 001: 1S                -513.176216957 Ry
:2S 001: 2S                 -59.099710732 Ry
:2PP001: 2P*                -50.802059945 Ry
:2P 001: 2P                 -49.884625507 Ry
:3S 001: 3S                  -5.767299291 Ry

        2.ATOM      Fe2                   5 CORE STATES
:1S 002: 1S                -513.176878459 Ry
:2S 002: 2S                 -59.100370379 Ry
:2PP002: 2P*                -50.802721961 Ry
:2P 002: 2P                 -49.885287269 Ry
:3S 002: 3S                  -5.767816793 Ry

        3.ATOM      Rh1                  10 CORE STATES
:1S 003: 1S               -1691.536727935 Ry
:2S 003: 2S                -244.431478845 Ry
:2PP003: 2P*               -226.241369052 Ry
:2P 003: 2P                -215.612101816 Ry
:3S 003: 3S                 -42.957465383 Ry
:3PP003: 3P*                -35.839574011 Ry
:3P 003: 3P                 -34.010692767 Ry
:3DD003: 3D*                -21.414047230 Ry
:3D 003: 3D                 -21.053318063 Ry
:4S 003: 4S                  -5.162117097 Ry
:CINT001 Core Integral Atom   1   11.999268
:CINT002 Core Integral Atom   2   11.999268
:CINT003 Core Integral Atom   3   29.997490

       DENSITY AT NUCLEUS
        JATOM        VALENCE       SEMI-CORE          CORE           TOTAL
:RTO001:   1        6.440305        0.000000    15302.945828    15309.386133
:RTO002:   2        6.440562        0.000000    15302.949294    15309.389856
:RTO003:   3       23.199747        0.000000   155315.497265   155338.697012
     
       CHARGES OF NEW CHARGE DENSITY
:NTO   : INTERSTITIAL CHARGE =     4.431396
:NPC   : PW Pseudocharge     =    10.681871
:NTO001: CHARGE SPHERE  1    =    25.212704
:NTO002: CHARGE SPHERE  2    =    25.223346
:NTO003: CHARGE SPHERE  3    =    43.563003

:NEC01: NUCLEAR AND ELECTRONIC CHARGE    142.00000   141.99345
     
       CHARGES OF OLD CHARGE DENSITY
:OTO   : INTERSTITIAL CHARGE =     4.435741
:OPC   : PW Pseudocharge     =    10.703555
:OTO001: CHARGE SPHERE  1    =    25.196576
:OTO002: CHARGE SPHERE  2    =    25.196064
:OTO003: CHARGE SPHERE  3    =    43.585810

:NEC02: NUCLEAR AND ELECTRONIC CHARGE    142.00000   142.00000
     
       CONVERGENCE TEST
:DTO001: DIFFERENCE IN SPHERE  1 =  0.0146965
:DTO002: DIFFERENCE IN SPHERE  2 =  0.0277083
:DTO003: DIFFERENCE IN SPHERE  3 =  0.0198764

:DIS  :  CHARGE DISTANCE       ( 0.0277083 for atom    2 spin 1)      0.0205394
 PW Mixed is           49
 
******************************************************
* MULTISECANT MIXING VER9 RELEASE 10.4.0              *
* Standard Mode with controls                        *
* Fixed density scale                                *
* Regularization       1.000E-04                     *
* Trust Upper Limit    5.000E+00                     *
* Max Number of Memory Steps    8                    *
******************************************************
 
:PWTMP   1.1765E+02  4.5917E+02  3.5807E+02
:PLANE:  PW TOTAL      1.6613 DISTAN   2.95E-03  1.78E-01 %
:CHARG:  CLM/ATOM    299.8726 DISTAN   1.97E-02  6.58E-03 %
 
Step History
        DMIX         DMIXT        Red     Pred      Trust     Lambda    MagRel    MagAbs     Beta
  4   5.5699E-02   5.5699E-02  8.39E-01  9.82E-01  2.52E-01  1.51E+00  6.38E-02  8.46E-02  9.26E-01
  5   1.3925E-01   1.0604E-01  6.09E-01  5.91E-01  3.76E-01  1.88E+00  1.59E-01  1.76E-01  1.00E+00
  6   8.7655E-02   8.7655E-02  5.59E-01  5.72E-01  5.01E-01  2.37E+00  3.11E-01  2.11E-01  1.00E+00
  7   1.0467E-01   1.0467E-01  5.69E-01  7.55E-01  6.68E-01  1.42E+00  3.59E-01  1.36E-01  9.76E-01
  8   2.5825E-01   2.5825E-01  8.39E-01  3.85E-01  1.81E+00  1.84E+00  7.73E-01  1.67E-01  1.00E+00
  9   1.1028E-01   1.1028E-01  1.67E+00  4.53E-01  3.45E+00  2.25E+00  5.07E-02  9.15E-03  9.67E-01
 10   1.5546E-01   1.5546E-01  2.61E-01  1.71E-01  1.92E+00  2.44E+00  9.49E-02  2.85E-02  1.00E+00
 11   2.4860E-01   2.4860E-01  9.28E-01  2.27E-01  2.56E+00  2.56E+00  3.50E-01  2.75E-02  1.00E+00
 12   1.4899E-01   1.4899E-01 -1.00E+00  1.86E-01  2.94E+00  1.00E+00  5.41E-02  3.94E-03  1.00E+00
:JACOBIANS    1.363E+00   1.562E+00
  
:NORMS:  1/Froebius, Min, Max, Used   0.5188E+00  0.3706E+00  0.9896E+00  0.8272E+00
:INFO :  Number of Memory Steps    8 Skipping    3
:INFO :  SLambda=    2.6985621233  Max    2.6985621233
:PREDicted Charge, CTotal, PW Trust    7.884E-04   5.964E-04   2.675E-03
:PREDicted DMix, Beta, BLim   9.6245E-03  1.3273E+00  1.3469E-01

Eigenvalues, unscaled except for SY+YY
   #     SY Real        SY Imag          SS             YY         SY+YY Real      SY+YY Imag
   1   1.824453E+00   0.000000E+00   1.847787E+00   2.700734E+00   7.293314E+00   0.000000E+00
   2   4.308848E-01   0.000000E+00   1.895161E-01   2.595067E+00   2.861840E+00   0.000000E+00
   3   1.789762E-01   0.000000E+00   1.081321E-01   1.366898E+00   2.538082E+00   0.000000E+00
   4   3.168916E-02   3.769974E-03   5.124009E-03   1.086108E+00   1.353292E+00   0.000000E+00
   5   3.168916E-02  -3.769974E-03   1.447494E-03   2.324860E-01   6.757100E-01   0.000000E+00
   6   4.963765E-03   0.000000E+00   5.733033E-04   1.507158E-02   2.679623E-02   0.000000E+00
   7  -1.228709E-05   0.000000E+00   2.985447E-04   2.634002E-03   1.052740E-03   0.000000E+00
   8   1.544334E-03   0.000000E+00   3.530990E-05   1.000965E-03   7.619984E-03   0.000000E+00
 
:INFO :  Singular value  7.359E+00 Weight  1.000E+00 Projection -1.787E-03
:INFO :  Singular value  2.869E+00 Weight  1.000E+00 Projection  4.010E-03
:INFO :  Singular value  2.529E+00 Weight  1.000E+00 Projection  1.715E-03
:INFO :  Singular value  1.366E+00 Weight  1.000E+00 Projection -4.697E-02
:INFO :  Singular value  6.648E-01 Weight  1.000E+00 Projection  1.414E-02
:INFO :  Singular value  2.739E-02 Weight  9.999E-01 Projection  1.072E-01
:INFO :  Singular value  7.540E-03 Weight  9.987E-01 Projection  1.439E-02
:INFO :  Singular value  1.040E-03 Weight  9.368E-01 Projection -1.338E-01
:RANK :  ACTIVE   7.94/8  =  99.19 % ; YY RANK   7.92/8  =  99.02 %
 
:BLIM :  VZERO Control Off
:TRUST:  Step 1.95E+00  Charge 5.11E-02 (e) CTO  1.41E-01 (e) PW  1.47E-01 (e)
:DIRM :  MEMORY  8/8  SCALE   1.000 RED  0.81 PRED  0.19 NEXT  0.25 
:TRAVE:  Charge 3.12E-03 (e) CTO  7.00E-03 (e) PW  7.50E-03 (e)
:DIRP :  |MSR1|= 2.274E-03 |PRATT|= 2.949E-03 ANGLE= 117.2 DEGREES
:DIRQ :  |MSR1|= 3.357E-03 |PRATT|= 5.923E-02 ANGLE=  46.0 DEGREES
:DIRT :  |MSR1|= 4.055E-03 |PRATT|= 5.931E-02 ANGLE=  55.9 DEGREES
:MIX  :   MSE1   REGULARIZATION:  2.70E-04 GREED: 0.09185  Newton 1.00  0.0684                
     
       CHARGES OF MIXED CHARGE DENSITY
:CTO   : INTERSTITIAL CHARGE =     4.437080
:CPC   : PW Pseudocharge     =    10.704273
:CTO001: CHARGE SPHERE  1    =    25.196519
:CTO002: CHARGE SPHERE  2    =    25.196023
:CTO003: CHARGE SPHERE  3    =    43.585189

:NEC03: NUCLEAR AND ELECTRONIC CHARGE    142.00000   142.00000

PW CHANGE     H    K    L      Current       Change    Residue
:PTO001:      0    0    0  4.22859709E-02  5.745E-06 -1.032E-05
:PTO002:     -1   -1   -1  2.57672562E-06  1.330E-07 -8.835E-06
:PTO003:      0    0   -2 -1.33052552E-02 -1.351E-05  1.213E-04
:PTO004:      0   -2   -2 -1.10312512E-04  1.033E-04 -1.544E-04
:PTO005:     -1   -1   -3 -1.23816430E-06 -3.109E-07 -1.608E-06
:PTO006:     -2   -2   -2  4.33575145E-03 -2.014E-05 -3.055E-05
:PTO007:      0    0   -4 -1.17740421E-02  5.679E-05 -5.156E-05
:PTO008:     -1   -3   -3 -1.59100361E-06 -1.760E-07  1.342E-05
:PTO009:      0   -2   -4  1.18883903E-02 -5.652E-05 -2.334E-05
:PTO010:     -2   -2   -4 -2.02882946E-02  1.876E-04 -1.918E-05
:PTO011:     -3   -3   -3 -3.30725387E-06 -4.791E-07 -1.504E-06
:PTO012:     -1   -1   -5  7.24498495E-06  9.670E-07  8.350E-06

:ENE  : ********** TOTAL ENERGY IN Ry =       -24232.07499212

