
:LABEL1: Calculations in /home/cmueller/wien/FZU/src/trial/Mn2Sb/AFM
:LABEL2: on cv036 at Thu Apr 11 07:27:40 PM CEST 2024
:LABEL3: using WIEN2k_19.1 (Release 25/6/2019) in /home/cmueller/WIENROOT
:LABEL4: using the command: runsp_lapw
 Flat Integration
 New Mode for Coulomb Integral
 Consistent 3/8+Simpson combinations
 Extension of core to zero
 LDM version in phi
 Fifth-order quadrature in outwin


            ---------
:ITE001:  1. ITERATION
            ---------

:NATO :    6 INDEPENDENT AND    6 TOTAL ATOMS IN UNITCELL
       SUBSTANCE: Mn2Sb (according to Wijngaard et al. '92)                   

       LATTICE                      = P   
:POT  : POTENTIAL OPTION EX_PBE EC_PBE VX_PBE VC_PBE
:LAT  : LATTICE CONSTANTS=  7.71000  7.71000 12.40000    1.571    1.571    1.571
:VOL  : UNIT CELL VOLUME =     737.10684
       MODE OF CALCULATION IS       = RELA
       SPINPOLARIZED CALCULATION
:IFFT  : FFT-parameters:   60   60   96 Factor: 2.00


   CONVERGENCE PARAMETER FOR PSEUDOCHARGE: NCON=  9
   MAXIMAL VALUE OF RMT(JATOM)*ABSK(NKK) : RK  =29.99674


:VKCOUL :  VK-COUL convergence: 0.371E-07
       ATOMNUMBER=  1 Mn1        VCOUL-ZERO =  0.45847E+00
:EFG001:                        EFG         =    -0.00031   *10**21  V / m**2
                               V20  TOT/SRF=    -0.00027     0.00855
                               V22  TOT/SRF=     0.00000     0.00000
                               V22M TOT/SRF=     0.00000     0.00000
                               V21  TOT/SRF=     0.00000     0.00000
                               V21M TOT/SRF=     0.00000     0.00000

              0.00016    0.00000    0.00000        0.00016    0.00000    0.00000
              0.00000    0.00016    0.00000        0.00000    0.00016    0.00000
              0.00000    0.00000   -0.00031        0.00000    0.00000   -0.00031

         MAIN DIRECTIONS OF THE EFG   1.0000  0.0000  0.0000
                                      0.0000  1.0000  0.0000
                                      0.0000  0.0000  1.0000
:ANG001:  ANGLE WITH OLD X-AXIS =         0.0

:ETA001:                         ASYMM. ETA =     0.00000


       ATOMNUMBER=  2 Mn2        VCOUL-ZERO =  0.45847E+00
:EFG002:                        EFG         =    -0.00031   *10**21  V / m**2
                               V20  TOT/SRF=    -0.00027     0.00855
                               V22  TOT/SRF=     0.00000     0.00000
                               V22M TOT/SRF=     0.00000     0.00000
                               V21  TOT/SRF=     0.00000     0.00000
                               V21M TOT/SRF=     0.00000     0.00000

              0.00016    0.00000    0.00000        0.00016    0.00000    0.00000
              0.00000    0.00016    0.00000        0.00000    0.00016    0.00000
              0.00000    0.00000   -0.00031        0.00000    0.00000   -0.00031

         MAIN DIRECTIONS OF THE EFG   1.0000  0.0000  0.0000
                                      0.0000  1.0000  0.0000
                                      0.0000  0.0000  1.0000
:ANG002:  ANGLE WITH OLD X-AXIS =         0.0

:ETA002:                         ASYMM. ETA =     0.00000


       ATOMNUMBER=  3 Sb1        VCOUL-ZERO =  0.40660E+00
:EFG003:                        EFG         =     0.01434   *10**21  V / m**2
                               V20  TOT/SRF=     0.01242     0.02005
                               V22  TOT/SRF=     0.00000     0.00000
                               V22M TOT/SRF=     0.00000     0.00000
                               V21  TOT/SRF=     0.00000     0.00000
                               V21M TOT/SRF=     0.00000     0.00000

             -0.00717    0.00000    0.00000       -0.00717    0.00000    0.00000
              0.00000   -0.00717    0.00000        0.00000   -0.00717    0.00000
              0.00000    0.00000    0.01434        0.00000    0.00000    0.01434

         MAIN DIRECTIONS OF THE EFG   1.0000  0.0000  0.0000
                                      0.0000  1.0000  0.0000
                                      0.0000  0.0000  1.0000
:ANG003:  ANGLE WITH OLD X-AXIS =         0.0

:ETA003:                         ASYMM. ETA =     0.00000


       ATOMNUMBER=  4 Sb2        VCOUL-ZERO =  0.40660E+00
:EFG004:                        EFG         =     0.01434   *10**21  V / m**2
                               V20  TOT/SRF=     0.01242     0.02005
                               V22  TOT/SRF=     0.00000     0.00000
                               V22M TOT/SRF=     0.00000     0.00000
                               V21  TOT/SRF=     0.00000     0.00000
                               V21M TOT/SRF=     0.00000     0.00000

             -0.00717    0.00000    0.00000       -0.00717    0.00000    0.00000
              0.00000   -0.00717    0.00000        0.00000   -0.00717    0.00000
              0.00000    0.00000    0.01434        0.00000    0.00000    0.01434

         MAIN DIRECTIONS OF THE EFG   1.0000  0.0000  0.0000
                                      0.0000  1.0000  0.0000
                                      0.0000  0.0000  1.0000
:ANG004:  ANGLE WITH OLD X-AXIS =         0.0

:ETA004:                         ASYMM. ETA =     0.00000


       ATOMNUMBER=  5 Mn3        VCOUL-ZERO =  0.53145E+00
:EFG005:                        EFG         =     0.01542   *10**21  V / m**2
                               V20  TOT/SRF=     0.01336     0.01700
                               V22  TOT/SRF=     0.00000    -0.00000
                               V22M TOT/SRF=     0.00000     0.00000
                               V21  TOT/SRF=     0.00000     0.00000
                               V21M TOT/SRF=     0.00000     0.00000

             -0.00771    0.00000    0.00000       -0.00771    0.00000    0.00000
              0.00000   -0.00771    0.00000        0.00000   -0.00771    0.00000
              0.00000    0.00000    0.01542        0.00000    0.00000    0.01542

         MAIN DIRECTIONS OF THE EFG   1.0000  0.0000  0.0000
                                      0.0000  1.0000  0.0000
                                      0.0000  0.0000  1.0000
:ANG005:  ANGLE WITH OLD X-AXIS =         0.0

:ETA005:                         ASYMM. ETA =     0.00000


       ATOMNUMBER=  6 Mn4        VCOUL-ZERO =  0.53145E+00
:EFG006:                        EFG         =     0.01542   *10**21  V / m**2
                               V20  TOT/SRF=     0.01336     0.01700
                               V22  TOT/SRF=     0.00000    -0.00000
                               V22M TOT/SRF=     0.00000     0.00000
                               V21  TOT/SRF=     0.00000     0.00000
                               V21M TOT/SRF=     0.00000     0.00000

             -0.00771    0.00000    0.00000       -0.00771    0.00000    0.00000
              0.00000   -0.00771    0.00000        0.00000   -0.00771    0.00000
              0.00000    0.00000    0.01542        0.00000    0.00000    0.01542

         MAIN DIRECTIONS OF THE EFG   1.0000  0.0000  0.0000
                                      0.0000  1.0000  0.0000
                                      0.0000  0.0000  1.0000
:ANG006:  ANGLE WITH OLD X-AXIS =         0.0

:ETA006:                         ASYMM. ETA =     0.00000


     HELLMANN-FEYNMAN-FORCE IN mRy/a.u. = |F|  Fx       Fy             Fz
:FHF001:   1.ATOM      0.000000000113      0.000000000000      0.000000000000      0.000000000113

     HELLMANN-FEYNMAN-FORCE IN mRy/a.u. = |F|  Fx       Fy             Fz
:FHF002:   2.ATOM      0.000000000252      0.000000000000      0.000000000000      0.000000000252

     HELLMANN-FEYNMAN-FORCE IN mRy/a.u. = |F|  Fx       Fy             Fz
:FHF003:   3.ATOM    925.173401190930      0.000000000000      0.000000000000    925.173401190930

     HELLMANN-FEYNMAN-FORCE IN mRy/a.u. = |F|  Fx       Fy             Fz
:FHF004:   4.ATOM    925.173401196577      0.000000000000      0.000000000000   -925.173401196577

     HELLMANN-FEYNMAN-FORCE IN mRy/a.u. = |F|  Fx       Fy             Fz
:FHF005:   5.ATOM    393.194970185245      0.000000000000      0.000000000000   -393.194970185245

     HELLMANN-FEYNMAN-FORCE IN mRy/a.u. = |F|  Fx       Fy             Fz
:FHF006:   6.ATOM    393.194970185801      0.000000000000      0.000000000000    393.194970185801

:FIT001: LUSE= 13 SIGMA OF V-XC FIT FOR ATOM  1  0.3086331E-02
:FIT001: LUSE= 13 SIGMA OF V-XC FIT FOR ATOM  1  0.5752478E-02
:FIT002: LUSE= 13 SIGMA OF V-XC FIT FOR ATOM  2  0.3086331E-02
:FIT002: LUSE= 13 SIGMA OF V-XC FIT FOR ATOM  2  0.5752478E-02
:FIT003: LUSE= 13 SIGMA OF V-XC FIT FOR ATOM  3  0.8096344E-03
:FIT003: LUSE= 13 SIGMA OF V-XC FIT FOR ATOM  3  0.8143012E-03
:FIT004: LUSE= 13 SIGMA OF V-XC FIT FOR ATOM  4  0.8096344E-03
:FIT004: LUSE= 13 SIGMA OF V-XC FIT FOR ATOM  4  0.8143012E-03
:FIT005: LUSE= 13 SIGMA OF V-XC FIT FOR ATOM  5  0.3931613E-02
:FIT005: LUSE= 13 SIGMA OF V-XC FIT FOR ATOM  5  0.2887084E-02
:FIT006: LUSE= 13 SIGMA OF V-XC FIT FOR ATOM  6  0.3931613E-02
:FIT006: LUSE= 13 SIGMA OF V-XC FIT FOR ATOM  6  0.2887084E-02
:DEN  : DENSITY INTEGRAL  =        -14132.18401546   (Ry)
       ELS_POTENTIAL_AT Z=0 and Z=0.5:  -0.39578   0.76670
       ELS_POTENTIAL_AT Y=0 and Y=0.5:  -0.52094  -0.52094
:VZERO:v0,v0c,v0x  -1.25142  -0.39578  -0.85564 v5,v5c,v5x   0.16845   0.76670  -0.59825
:VZERY:v0,v0c,v0x  -1.32159  -0.52094  -0.80065 v5,v5c,v5x  -1.32159  -0.52094  -0.80065
:VZERX:v0,v0c,v0x  -1.32159  -0.52094  -0.80065 v5,v5c,v5x  -1.32159  -0.52094  -0.80065
:LMAX-WF:   10   Non-Spherical LMAX:   4

          ATOMIC SPHERE DEPENDENT PARAMETERS FOR ATOM  Mn1       
:e__0001: OVERALL ENERGY PARAMETER IS    0.3000
          OVERALL BASIS SET ON ATOM IS LAPW
:E1_0001: E( 1)=    0.3000
             APW+lo
:E1_0001: E( 1)=   -3.1584   E(BOTTOM)=   -3.193   E(TOP)=   -3.124  1  2   158
             LOCAL ORBITAL
:E2_0001: E( 2)=    0.3077   E(BOTTOM)=    0.081   E(TOP)=    0.535  0  1   124
             APW+lo
:E0_0001: E( 0)=    0.3000
             APW+lo

          ATOMIC SPHERE DEPENDENT PARAMETERS FOR ATOM  Mn2       
:e__0002: OVERALL ENERGY PARAMETER IS    0.3000
          OVERALL BASIS SET ON ATOM IS LAPW
:E1_0002: E( 1)=    0.3000
             APW+lo
:E1_0002: E( 1)=   -3.1584   E(BOTTOM)=   -3.193   E(TOP)=   -3.124  1  2   158
             LOCAL ORBITAL
:E2_0002: E( 2)=    0.3077   E(BOTTOM)=    0.081   E(TOP)=    0.535  0  1   124
             APW+lo
:E0_0002: E( 0)=    0.3000
             APW+lo

          ATOMIC SPHERE DEPENDENT PARAMETERS FOR ATOM  Sb1       
:e__0003: OVERALL ENERGY PARAMETER IS    0.3000
          OVERALL BASIS SET ON ATOM IS LAPW
:E2_0003: E( 2)=    0.3000
             APW+lo
:E2_0003: E( 2)=   -1.4753   E(BOTTOM)=   -1.562   E(TOP)=   -1.389  1  2   155
             LOCAL ORBITAL
:E0_0003: E( 0)=    0.7000
             APW+lo
:E0_0003: E( 0)=   -0.6300   E(BOTTOM)=   -0.793   E(TOP)= -200.000  4 -1   144
             LOCAL ORBITAL
:E1_0003: E( 1)=    0.3000
             APW+lo

          ATOMIC SPHERE DEPENDENT PARAMETERS FOR ATOM  Sb2       
:e__0004: OVERALL ENERGY PARAMETER IS    0.3000
          OVERALL BASIS SET ON ATOM IS LAPW
:E2_0004: E( 2)=    0.3000
             APW+lo
:E2_0004: E( 2)=   -1.4753   E(BOTTOM)=   -1.562   E(TOP)=   -1.389  1  2   155
             LOCAL ORBITAL
:E0_0004: E( 0)=    0.7000
             APW+lo
:E0_0004: E( 0)=   -0.6300   E(BOTTOM)=   -0.793   E(TOP)= -200.000  4 -1   144
             LOCAL ORBITAL
:E1_0004: E( 1)=    0.3000
             APW+lo

          ATOMIC SPHERE DEPENDENT PARAMETERS FOR ATOM  Mn3       
:e__0005: OVERALL ENERGY PARAMETER IS    0.3000
          OVERALL BASIS SET ON ATOM IS LAPW
:E1_0005: E( 1)=    0.3000
             APW+lo
:E1_0005: E( 1)=   -2.7610   E(BOTTOM)=   -2.798   E(TOP)=   -2.724  1  2   162
             LOCAL ORBITAL
:E2_0005: E( 2)=    0.6801   E(BOTTOM)=    0.426   E(TOP)=    0.934  0  1   138
             APW+lo
:E0_0005: E( 0)=    0.3000
             APW+lo

          ATOMIC SPHERE DEPENDENT PARAMETERS FOR ATOM  Mn4       
:e__0006: OVERALL ENERGY PARAMETER IS    0.3000
          OVERALL BASIS SET ON ATOM IS LAPW
:E1_0006: E( 1)=    0.3000
             APW+lo
:E1_0006: E( 1)=   -2.7610   E(BOTTOM)=   -2.798   E(TOP)=   -2.724  1  2   162
             LOCAL ORBITAL
:E2_0006: E( 2)=    0.6801   E(BOTTOM)=    0.426   E(TOP)=    0.934  0  1   138
             APW+lo
:E0_0006: E( 0)=    0.3000
             APW+lo

       K=   0.03571   0.03571   0.05556            1
:RKM  : MATRIX SIZE   367LOs:  78  RKM= 6.99  WEIGHT= 8.00  PGR:    
       EIGENVALUES ARE:
:EIG00001:      -3.1537499   -3.1536642   -3.1518508   -3.1506383   -3.1483087
:EIG00006:      -3.1482384   -2.7540144   -2.7537660   -2.7527918   -2.7527709
:EIG00011:      -2.7527010   -2.7526949   -1.4570347   -1.4566876   -1.4560722
:EIG00016:      -1.4560269   -1.4558079   -1.4557513   -1.4555073   -1.4552151
:EIG00021:      -1.4552023   -1.4545129   -0.2625966   -0.1347309    0.1247720
:EIG00026:       0.2090876    0.2396488    0.2422404    0.2452105    0.3232178
:EIG00031:       0.3319680    0.3434139    0.3455944    0.3909448    0.4151242
:EIG00036:       0.4274986    0.4458668    0.5203571    0.5858947    0.6014048
:EIG00041:       0.6286527    0.6292444    0.6402280    0.6580726    0.6813139
:EIG00046:       0.6982784    0.6988189    0.7182708    0.7241128    0.7818713
 
:EIG00051:       0.7939728    0.8222689    0.9674267    0.9960865    1.0059565
:EIG00056:       1.0610306    1.0746840    1.1537423    1.2007868    1.2248777
:EIG00061:       1.2459621    1.3635929    1.3934356    1.4003514    1.5207275
:EIG00066:       1.5339661    1.5442581    1.5527470    1.6423750    1.6431985
:EIG00071:       1.6534332    1.6702542    1.6886434    1.6937252    1.7701080
:EIG00076:       1.8583525    1.8845748    1.9058801    1.9973766
       ********************************************************

:KPT   :      NUMBER OF K-POINTS:   245
:LMAX-WF:   10   Non-Spherical LMAX:   4

          ATOMIC SPHERE DEPENDENT PARAMETERS FOR ATOM  Mn1       
:e__0001: OVERALL ENERGY PARAMETER IS    0.3000
          OVERALL BASIS SET ON ATOM IS LAPW
:E1_0001: E( 1)=    0.3000
             APW+lo
:E1_0001: E( 1)=   -2.7918   E(BOTTOM)=   -2.830   E(TOP)=   -2.753  1  2   201
             LOCAL ORBITAL
:E2_0001: E( 2)=    0.6389   E(BOTTOM)=    0.376   E(TOP)=    0.902  0  1   124
             APW+lo
:E0_0001: E( 0)=    0.3000
             APW+lo

          ATOMIC SPHERE DEPENDENT PARAMETERS FOR ATOM  Mn2       
:e__0002: OVERALL ENERGY PARAMETER IS    0.3000
          OVERALL BASIS SET ON ATOM IS LAPW
:E1_0002: E( 1)=    0.3000
             APW+lo
:E1_0002: E( 1)=   -2.7918   E(BOTTOM)=   -2.830   E(TOP)=   -2.753  1  2   201
             LOCAL ORBITAL
:E2_0002: E( 2)=    0.6389   E(BOTTOM)=    0.376   E(TOP)=    0.902  0  1   124
             APW+lo
:E0_0002: E( 0)=    0.3000
             APW+lo

          ATOMIC SPHERE DEPENDENT PARAMETERS FOR ATOM  Sb1       
:e__0003: OVERALL ENERGY PARAMETER IS    0.3000
          OVERALL BASIS SET ON ATOM IS LAPW
:E2_0003: E( 2)=    0.3000
             APW+lo
:E2_0003: E( 2)=   -1.4752   E(BOTTOM)=   -1.562   E(TOP)=   -1.389  1  2   158
             LOCAL ORBITAL
:E0_0003: E( 0)=    0.7000
             APW+lo
:E0_0003: E( 0)=   -0.6300   E(BOTTOM)=   -0.793   E(TOP)= -200.000  4 -1   145
             LOCAL ORBITAL
:E1_0003: E( 1)=    0.3000
             APW+lo

          ATOMIC SPHERE DEPENDENT PARAMETERS FOR ATOM  Sb2       
:e__0004: OVERALL ENERGY PARAMETER IS    0.3000
          OVERALL BASIS SET ON ATOM IS LAPW
:E2_0004: E( 2)=    0.3000
             APW+lo
:E2_0004: E( 2)=   -1.4752   E(BOTTOM)=   -1.562   E(TOP)=   -1.389  1  2   158
             LOCAL ORBITAL
:E0_0004: E( 0)=    0.7000
             APW+lo
:E0_0004: E( 0)=   -0.6300   E(BOTTOM)=   -0.793   E(TOP)= -200.000  4 -1   145
             LOCAL ORBITAL
:E1_0004: E( 1)=    0.3000
             APW+lo

          ATOMIC SPHERE DEPENDENT PARAMETERS FOR ATOM  Mn3       
:e__0005: OVERALL ENERGY PARAMETER IS    0.3000
          OVERALL BASIS SET ON ATOM IS LAPW
:E1_0005: E( 1)=    0.3000
             APW+lo
:E1_0005: E( 1)=   -3.1288   E(BOTTOM)=   -3.162   E(TOP)=   -3.095  1  2   124
             LOCAL ORBITAL
:E2_0005: E( 2)=    0.3452   E(BOTTOM)=    0.125   E(TOP)=    0.565  0  1   121
             APW+lo
:E0_0005: E( 0)=    0.3000
             APW+lo

          ATOMIC SPHERE DEPENDENT PARAMETERS FOR ATOM  Mn4       
:e__0006: OVERALL ENERGY PARAMETER IS    0.3000
          OVERALL BASIS SET ON ATOM IS LAPW
:E1_0006: E( 1)=    0.3000
             APW+lo
:E1_0006: E( 1)=   -3.1288   E(BOTTOM)=   -3.162   E(TOP)=   -3.095  1  2   124
             LOCAL ORBITAL
:E2_0006: E( 2)=    0.3452   E(BOTTOM)=    0.125   E(TOP)=    0.565  0  1   121
             APW+lo
:E0_0006: E( 0)=    0.3000
             APW+lo

       K=   0.03571   0.03571   0.05556            1
:RKM  : MATRIX SIZE   367LOs:  78  RKM= 6.99  WEIGHT= 8.00  PGR:    
       EIGENVALUES ARE:
:EIG00001:      -3.1224260   -3.1222998   -3.1213106   -3.1212899   -3.1212235
:EIG00006:      -3.1212162   -2.7869463   -2.7868416   -2.7845804   -2.7830804
:EIG00011:      -2.7803302   -2.7802408   -1.4570405   -1.4567100   -1.4558859
:EIG00016:      -1.4558523   -1.4556311   -1.4555519   -1.4555202   -1.4552196
:EIG00021:      -1.4550821   -1.4543641   -0.2540317   -0.1338752    0.1669793
:EIG00026:       0.3145758    0.3289737    0.3309180    0.3329547    0.3449935
:EIG00031:       0.3459215    0.3459806    0.3475074    0.3542180    0.3653409
:EIG00036:       0.3908145    0.4361550    0.4405972    0.4840696    0.4874241
:EIG00041:       0.5418308    0.6066531    0.6145097    0.6665343    0.6860770
:EIG00046:       0.6861730    0.7157557    0.7324128    0.7809775    0.8202198
 
:EIG00051:       0.8283714    0.9048557    0.9748418    0.9797882    0.9844048
:EIG00056:       1.0147833    1.0743649    1.1751036    1.1932051    1.2008383
:EIG00061:       1.2488801    1.3478464    1.3789446    1.3800488    1.4909356
:EIG00066:       1.5198105    1.5706450    1.5848365    1.6106831    1.6150633
:EIG00071:       1.6799813    1.6885881    1.7031811    1.7074515    1.7352429
:EIG00076:       1.8279945    1.8863296    1.8951682
       ********************************************************

:KPT   :      NUMBER OF K-POINTS:   245
:GAP (global)   :    0.0    Ry =     0.0   eV (metal)
:GAP (this spin):    0.0    Ry =     0.0   eV (metal)
         Bandranges (emin - emax) and occupancy:
:BAN00032:  32    0.288504    0.351702  1.00000000
:BAN00033:  33    0.309542    0.391418  1.00000000
:BAN00034:  34    0.320425    0.394451  1.00000000
:BAN00035:  35    0.341582    0.417915  1.00000000
:BAN00036:  36    0.343226    0.434912  1.00000000
:BAN00037:  37    0.363920    0.484944  1.00000000
:BAN00038:  38    0.365726    0.520357  1.00000000
:BAN00039:  39    0.450876    0.585895  1.00000000
:BAN00040:  40    0.451889    0.610253  0.94196300
:BAN00041:  41    0.562338    0.658143  0.06513579
:BAN00042:  42    0.567025    0.669086  0.02250252
:BAN00043:  43    0.637551    0.693527  0.00000000
:BAN00044:  44    0.646000    0.697050  0.00000000
:BAN00045:  45    0.674192    0.710479  0.00000000
:BAN00046:  46    0.690854    0.722162  0.00000000
:BAN00047:  47    0.698819    0.756237  0.00000000
        Energy to separate low and high energystates:    0.06973


:NOE  : NUMBER OF ELECTRONS          =   82.000

:FER  : F E R M I - ENERGY(TETRAH.M.)=   0.5864748810
:GMA  : POTENTIAL AND CHARGE CUT-OFF  12.00 Ry**.5

:POS001: ATOM   -1 X,Y,Z = 0.00000 0.00000 0.00000  MULT= 1  ZZ= 25.000  Mn1       

       LMMAX 16
       LM=   0 0  1 0  2 0  2 2  3 0  3 2  4 0  4 2  4 4  5 0  5 2  5 4  6 0  6 2  6 4  6 6

:CHA001: TOTAL VALENCE CHARGE INSIDE SPHERE   1 =   7.9112    (RMT=  2.5000 )
:PCS001: PARTIAL CHARGES SPHERE =  1 S,P,D,F,PX,PY,PZ,D-Z2,D-X2Y2,D-XY,D-XZ,D-YZ 
:QTL001: 0.2280 3.2577 4.4120 0.0111 1.0837 1.0837 1.0903 0.8933 0.8853 0.9004 0.8665 0.8665
        Q-s-low E-s-low   Q-p-low E-p-low   Q-d-low E-d-low   Q-f-low E-f-low
:EPL001:  0.0528 -0.1968    3.0280 -3.1170    0.0342 -0.1815    0.0015 -0.5763
        Q-s-hi  E-s-hi    Q-p-hi  E-p-hi    Q-d-hi  E-d-hi    Q-f-hi  E-f-hi 
:EPH001:  0.1752  0.2394    0.2297  0.3522    4.3778  0.3286    0.0096  0.3720

                      VXX         VYY         VZZ       UP TO R
:VZZ001:            -0.07593    -0.07593     0.15185       2.500

:POS002: ATOM   -2 X,Y,Z = 0.50000 0.50000 0.00000  MULT= 1  ZZ= 25.000  Mn2       

       LMMAX 16
       LM=   0 0  1 0  2 0  2 2  3 0  3 2  4 0  4 2  4 4  5 0  5 2  5 4  6 0  6 2  6 4  6 6

:CHA002: TOTAL VALENCE CHARGE INSIDE SPHERE   2 =   7.9112    (RMT=  2.5000 )
:PCS002: PARTIAL CHARGES SPHERE =  2 S,P,D,F,PX,PY,PZ,D-Z2,D-X2Y2,D-XY,D-XZ,D-YZ 
:QTL002: 0.2280 3.2577 4.4120 0.0111 1.0837 1.0837 1.0903 0.8933 0.8853 0.9004 0.8665 0.8665
        Q-s-low E-s-low   Q-p-low E-p-low   Q-d-low E-d-low   Q-f-low E-f-low
:EPL002:  0.0528 -0.1968    3.0280 -3.1170    0.0342 -0.1815    0.0015 -0.5763
        Q-s-hi  E-s-hi    Q-p-hi  E-p-hi    Q-d-hi  E-d-hi    Q-f-hi  E-f-hi 
:EPH002:  0.1752  0.2394    0.2297  0.3522    4.3778  0.3286    0.0096  0.3720

                      VXX         VYY         VZZ       UP TO R
:VZZ002:            -0.07593    -0.07593     0.15185       2.500

:POS003: ATOM   -3 X,Y,Z = 0.00000 0.50000 0.28000  MULT= 1  ZZ= 51.000  Sb1       

       LMMAX 16
       LM=   0 0  1 0  2 0  2 2  3 0  3 2  4 0  4 2  4 4  5 0  5 2  5 4  6 0  6 2  6 4  6 6

:CHA003: TOTAL VALENCE CHARGE INSIDE SPHERE   3 =   6.3598    (RMT=  2.5000 )
:PCS003: PARTIAL CHARGES SPHERE =  3 S,P,D,F,PX,PY,PZ,D-Z2,D-X2Y2,D-XY,D-XZ,D-YZ 
:QTL003: 0.6025 0.7487 4.9961 0.0100 0.2552 0.2552 0.2384 0.9974 1.0007 0.9966 1.0007 1.0007
        Q-s-low E-s-low   Q-p-low E-p-low   Q-d-low E-d-low   Q-f-low E-f-low
:EPL003:  0.5060 -0.1494    0.0119 -0.2027    4.9562 -1.4553    0.0003 -1.2960
        Q-s-hi  E-s-hi    Q-p-hi  E-p-hi    Q-d-hi  E-d-hi    Q-f-hi  E-f-hi 
:EPH003:  0.0965  0.2942    0.7369  0.3491    0.0398  0.3386    0.0097  0.3449

                      VXX         VYY         VZZ       UP TO R
:VZZ003:            -2.12141    -2.12141     4.24283       2.500

:POS004: ATOM   -4 X,Y,Z = 0.50000 0.00000 0.72000  MULT= 1  ZZ= 51.000  Sb2       

       LMMAX 16
       LM=   0 0  1 0  2 0  2 2  3 0  3 2  4 0  4 2  4 4  5 0  5 2  5 4  6 0  6 2  6 4  6 6

:CHA004: TOTAL VALENCE CHARGE INSIDE SPHERE   4 =   6.3598    (RMT=  2.5000 )
:PCS004: PARTIAL CHARGES SPHERE =  4 S,P,D,F,PX,PY,PZ,D-Z2,D-X2Y2,D-XY,D-XZ,D-YZ 
:QTL004: 0.6025 0.7487 4.9961 0.0100 0.2552 0.2552 0.2384 0.9974 1.0007 0.9966 1.0007 1.0007
        Q-s-low E-s-low   Q-p-low E-p-low   Q-d-low E-d-low   Q-f-low E-f-low
:EPL004:  0.5060 -0.1494    0.0119 -0.2027    4.9562 -1.4553    0.0003 -1.2960
        Q-s-hi  E-s-hi    Q-p-hi  E-p-hi    Q-d-hi  E-d-hi    Q-f-hi  E-f-hi 
:EPH004:  0.0965  0.2942    0.7369  0.3491    0.0398  0.3386    0.0097  0.3449

                      VXX         VYY         VZZ       UP TO R
:VZZ004:            -2.12141    -2.12141     4.24283       2.500

:POS005: ATOM   -5 X,Y,Z = 0.00000 0.50000 0.70500  MULT= 1  ZZ= 25.000  Mn3       

       LMMAX 16
       LM=   0 0  1 0  2 0  2 2  3 0  3 2  4 0  4 2  4 4  5 0  5 2  5 4  6 0  6 2  6 4  6 6

:CHA005: TOTAL VALENCE CHARGE INSIDE SPHERE   5 =   3.7470    (RMT=  2.5000 )
:PCS005: PARTIAL CHARGES SPHERE =  5 S,P,D,F,PX,PY,PZ,D-Z2,D-X2Y2,D-XY,D-XZ,D-YZ 
:QTL005: 0.1328 3.1354 0.4675 0.0090 1.0447 1.0447 1.0460 0.0901 0.0715 0.1466 0.0796 0.0796
        Q-s-low E-s-low   Q-p-low E-p-low   Q-d-low E-d-low   Q-f-low E-f-low
:EPL005:  0.0192 -0.2026    3.0078 -2.7398    0.0107 -0.2141    0.0010 -0.4709
        Q-s-hi  E-s-hi    Q-p-hi  E-p-hi    Q-d-hi  E-d-hi    Q-f-hi  E-f-hi 
:EPH005:  0.1135  0.2418    0.1276  0.3338    0.4568  0.4419    0.0080  0.3568

                      VXX         VYY         VZZ       UP TO R
:VZZ005:            -0.42513    -0.42513     0.85026       2.500

:POS006: ATOM   -6 X,Y,Z = 0.50000 0.00000 0.29500  MULT= 1  ZZ= 25.000  Mn4       

       LMMAX 16
       LM=   0 0  1 0  2 0  2 2  3 0  3 2  4 0  4 2  4 4  5 0  5 2  5 4  6 0  6 2  6 4  6 6

:CHA006: TOTAL VALENCE CHARGE INSIDE SPHERE   6 =   3.7470    (RMT=  2.5000 )
:PCS006: PARTIAL CHARGES SPHERE =  6 S,P,D,F,PX,PY,PZ,D-Z2,D-X2Y2,D-XY,D-XZ,D-YZ 
:QTL006: 0.1328 3.1354 0.4675 0.0090 1.0447 1.0447 1.0460 0.0901 0.0715 0.1466 0.0796 0.0796
        Q-s-low E-s-low   Q-p-low E-p-low   Q-d-low E-d-low   Q-f-low E-f-low
:EPL006:  0.0192 -0.2026    3.0078 -2.7398    0.0107 -0.2141    0.0010 -0.4709
        Q-s-hi  E-s-hi    Q-p-hi  E-p-hi    Q-d-hi  E-d-hi    Q-f-hi  E-f-hi 
:EPH006:  0.1135  0.2418    0.1276  0.3338    0.4568  0.4419    0.0080  0.3568

                      VXX         VYY         VZZ       UP TO R
:VZZ006:            -0.42513    -0.42513     0.85026       2.500

:CHA  : TOTAL VALENCE CHARGE INSIDE UNIT CELL =      40.029601

:SUM  : SUM OF EIGENVALUES =         -44.944730649

:GAP (global)   :    0.0    Ry =     0.0   eV (metal)
:GAP (this spin):    0.0    Ry =     0.0   eV (metal)
         Bandranges (emin - emax) and occupancy:
:BAN00034:  34    0.353295    0.384118  1.00000000
:BAN00035:  35    0.357262    0.412036  1.00000000
:BAN00036:  36    0.375612    0.415148  1.00000000
:BAN00037:  37    0.393419    0.503966  1.00000000
:BAN00038:  38    0.401725    0.533557  1.00000000
:BAN00039:  39    0.422667    0.559562  1.00000000
:BAN00040:  40    0.429073    0.567647  1.00000000
:BAN00041:  41    0.451254    0.603179  0.95538893
:BAN00042:  42    0.459310    0.622101  0.63550801
:BAN00043:  43    0.555807    0.636489  0.22672100
:BAN00044:  44    0.558882    0.667209  0.15278074
:BAN00045:  45    0.650115    0.694735  0.00000000
:BAN00046:  46    0.655511    0.710961  0.00000000
:BAN00047:  47    0.686318    0.733555  0.00000000
:BAN00048:  48    0.693477    0.780320  0.00000000
:BAN00049:  49    0.725739    0.804203  0.00000000
        Energy to separate low and high energystates:    0.06623


:NOE  : NUMBER OF ELECTRONS          =   82.000

:FER  : F E R M I - ENERGY(TETRAH.M.)=   0.5864748810
:GMA  : POTENTIAL AND CHARGE CUT-OFF  12.00 Ry**.5

:POS001: ATOM   -1 X,Y,Z = 0.00000 0.00000 0.00000  MULT= 1  ZZ= 25.000  Mn1       

       LMMAX 16
       LM=   0 0  1 0  2 0  2 2  3 0  3 2  4 0  4 2  4 4  5 0  5 2  5 4  6 0  6 2  6 4  6 6

:CHA001: TOTAL VALENCE CHARGE INSIDE SPHERE   1 =   4.5494    (RMT=  2.5000 )
:PCS001: PARTIAL CHARGES SPHERE =  1 S,P,D,F,PX,PY,PZ,D-Z2,D-X2Y2,D-XY,D-XZ,D-YZ 
:QTL001: 0.1786 3.2137 1.1411 0.0131 1.0732 1.0732 1.0673 0.1702 0.1566 0.3763 0.2190 0.2190
        Q-s-low E-s-low   Q-p-low E-p-low   Q-d-low E-d-low   Q-f-low E-f-low
:EPL001:  0.0397 -0.1873    3.0208 -2.7585    0.0172 -0.2160    0.0014 -0.5738
        Q-s-hi  E-s-hi    Q-p-hi  E-p-hi    Q-d-hi  E-d-hi    Q-f-hi  E-f-hi 
:EPH001:  0.1388  0.2602    0.1928  0.3617    1.1239  0.4799    0.0116  0.3996

                      VXX         VYY         VZZ       UP TO R
:VZZ001:            -1.72530    -1.72530     3.45060       2.500

:POS002: ATOM   -2 X,Y,Z = 0.50000 0.50000 0.00000  MULT= 1  ZZ= 25.000  Mn2       

       LMMAX 16
       LM=   0 0  1 0  2 0  2 2  3 0  3 2  4 0  4 2  4 4  5 0  5 2  5 4  6 0  6 2  6 4  6 6

:CHA002: TOTAL VALENCE CHARGE INSIDE SPHERE   2 =   4.5494    (RMT=  2.5000 )
:PCS002: PARTIAL CHARGES SPHERE =  2 S,P,D,F,PX,PY,PZ,D-Z2,D-X2Y2,D-XY,D-XZ,D-YZ 
:QTL002: 0.1786 3.2137 1.1411 0.0131 1.0732 1.0732 1.0673 0.1702 0.1566 0.3763 0.2190 0.2190
        Q-s-low E-s-low   Q-p-low E-p-low   Q-d-low E-d-low   Q-f-low E-f-low
:EPL002:  0.0397 -0.1873    3.0208 -2.7585    0.0172 -0.2160    0.0014 -0.5738
        Q-s-hi  E-s-hi    Q-p-hi  E-p-hi    Q-d-hi  E-d-hi    Q-f-hi  E-f-hi 
:EPH002:  0.1388  0.2602    0.1928  0.3617    1.1239  0.4799    0.0116  0.3996

                      VXX         VYY         VZZ       UP TO R
:VZZ002:            -1.72530    -1.72530     3.45060       2.500

:POS003: ATOM   -3 X,Y,Z = 0.00000 0.50000 0.28000  MULT= 1  ZZ= 51.000  Sb1       

       LMMAX 16
       LM=   0 0  1 0  2 0  2 2  3 0  3 2  4 0  4 2  4 4  5 0  5 2  5 4  6 0  6 2  6 4  6 6

:CHA003: TOTAL VALENCE CHARGE INSIDE SPHERE   3 =   6.3810    (RMT=  2.5000 )
:PCS003: PARTIAL CHARGES SPHERE =  3 S,P,D,F,PX,PY,PZ,D-Z2,D-X2Y2,D-XY,D-XZ,D-YZ 
:QTL003: 0.6039 0.7545 5.0089 0.0115 0.2477 0.2477 0.2590 1.0035 0.9965 1.0084 1.0003 1.0003
        Q-s-low E-s-low   Q-p-low E-p-low   Q-d-low E-d-low   Q-f-low E-f-low
:EPL003:  0.5219 -0.1410    0.0091 -0.2128    4.9564 -1.4552    0.0003 -1.2793
        Q-s-hi  E-s-hi    Q-p-hi  E-p-hi    Q-d-hi  E-d-hi    Q-f-hi  E-f-hi 
:EPH003:  0.0820  0.3424    0.7454  0.3507    0.0525  0.4127    0.0112  0.4272

                      VXX         VYY         VZZ       UP TO R
:VZZ003:             1.30540     1.30540    -2.61079       2.500

:POS004: ATOM   -4 X,Y,Z = 0.50000 0.00000 0.72000  MULT= 1  ZZ= 51.000  Sb2       

       LMMAX 16
       LM=   0 0  1 0  2 0  2 2  3 0  3 2  4 0  4 2  4 4  5 0  5 2  5 4  6 0  6 2  6 4  6 6

:CHA004: TOTAL VALENCE CHARGE INSIDE SPHERE   4 =   6.3810    (RMT=  2.5000 )
:PCS004: PARTIAL CHARGES SPHERE =  4 S,P,D,F,PX,PY,PZ,D-Z2,D-X2Y2,D-XY,D-XZ,D-YZ 
:QTL004: 0.6039 0.7545 5.0089 0.0115 0.2477 0.2477 0.2590 1.0035 0.9965 1.0084 1.0003 1.0003
        Q-s-low E-s-low   Q-p-low E-p-low   Q-d-low E-d-low   Q-f-low E-f-low
:EPL004:  0.5219 -0.1410    0.0091 -0.2128    4.9564 -1.4552    0.0003 -1.2793
        Q-s-hi  E-s-hi    Q-p-hi  E-p-hi    Q-d-hi  E-d-hi    Q-f-hi  E-f-hi 
:EPH004:  0.0820  0.3424    0.7454  0.3507    0.0525  0.4127    0.0112  0.4272

                      VXX         VYY         VZZ       UP TO R
:VZZ004:             1.30540     1.30540    -2.61079       2.500

:POS005: ATOM   -5 X,Y,Z = 0.00000 0.50000 0.70500  MULT= 1  ZZ= 25.000  Mn3       

       LMMAX 16
       LM=   0 0  1 0  2 0  2 2  3 0  3 2  4 0  4 2  4 4  5 0  5 2  5 4  6 0  6 2  6 4  6 6

:CHA005: TOTAL VALENCE CHARGE INSIDE SPHERE   5 =   7.8929    (RMT=  2.5000 )
:PCS005: PARTIAL CHARGES SPHERE =  5 S,P,D,F,PX,PY,PZ,D-Z2,D-X2Y2,D-XY,D-XZ,D-YZ 
:QTL005: 0.2222 3.2004 4.4603 0.0086 1.0629 1.0629 1.0746 0.8821 0.8867 0.9182 0.8866 0.8866
        Q-s-low E-s-low   Q-p-low E-p-low   Q-d-low E-d-low   Q-f-low E-f-low
:EPL005:  0.0263 -0.1912    3.0122 -3.1034    0.0205 -0.1695    0.0010 -0.4665
        Q-s-hi  E-s-hi    Q-p-hi  E-p-hi    Q-d-hi  E-d-hi    Q-f-hi  E-f-hi 
:EPH005:  0.1959  0.2911    0.1881  0.3941    4.4398  0.3686    0.0076  0.4285

                      VXX         VYY         VZZ       UP TO R
:VZZ005:             0.02150     0.02150    -0.04300       2.500

:POS006: ATOM   -6 X,Y,Z = 0.50000 0.00000 0.29500  MULT= 1  ZZ= 25.000  Mn4       

       LMMAX 16
       LM=   0 0  1 0  2 0  2 2  3 0  3 2  4 0  4 2  4 4  5 0  5 2  5 4  6 0  6 2  6 4  6 6

:CHA006: TOTAL VALENCE CHARGE INSIDE SPHERE   6 =   7.8929    (RMT=  2.5000 )
:PCS006: PARTIAL CHARGES SPHERE =  6 S,P,D,F,PX,PY,PZ,D-Z2,D-X2Y2,D-XY,D-XZ,D-YZ 
:QTL006: 0.2222 3.2004 4.4603 0.0086 1.0629 1.0629 1.0746 0.8821 0.8867 0.9182 0.8866 0.8866
        Q-s-low E-s-low   Q-p-low E-p-low   Q-d-low E-d-low   Q-f-low E-f-low
:EPL006:  0.0263 -0.1912    3.0122 -3.1034    0.0205 -0.1695    0.0010 -0.4665
        Q-s-hi  E-s-hi    Q-p-hi  E-p-hi    Q-d-hi  E-d-hi    Q-f-hi  E-f-hi 
:EPH006:  0.1959  0.2911    0.1881  0.3941    4.4398  0.3686    0.0076  0.4285

                      VXX         VYY         VZZ       UP TO R
:VZZ006:             0.02150     0.02150    -0.04300       2.500

:CHA  : TOTAL VALENCE CHARGE INSIDE UNIT CELL =      41.970399

:SUM  : SUM OF EIGENVALUES =         -43.549950460


        1.ATOM      Mn1                   5 CORE STATES
       CORE-FORCE in mRy/a.u. = |F|      Fx             Fy             Fz
:FCO001:   1.ATOM      0.000000005534      0.000000000000      0.000000000000      0.000000005534

:1S 001: 1S                -471.390739977 Ry
:2S 001: 2S                 -53.656433254 Ry
:2PP001: 2P*                -45.790094277 Ry
:2P 001: 2P                 -45.025022583 Ry
:3S 001: 3S                  -5.446656262 Ry

        2.ATOM      Mn2                   5 CORE STATES
       CORE-FORCE in mRy/a.u. = |F|      Fx             Fy             Fz
:FCO002:   2.ATOM      0.000000002431      0.000000000000      0.000000000000      0.000000002431

:1S 002: 1S                -471.390739977 Ry
:2S 002: 2S                 -53.656433254 Ry
:2PP002: 2P*                -45.790094277 Ry
:2P 002: 2P                 -45.025022583 Ry
:3S 002: 3S                  -5.446656262 Ry

        3.ATOM      Sb1                  12 CORE STATES
       CORE-FORCE in mRy/a.u. = |F|      Fx             Fy             Fz
:FCO003:   3.ATOM    697.828983789185      0.000000000000      0.000000000000   -697.828983789185

:1S 003: 1S               -2224.881748911 Ry
:2S 003: 2S                -337.582028936 Ry
:2PP003: 2P*               -315.742862092 Ry
:2P 003: 2P                -297.234716299 Ry
:3S 003: 3S                 -65.361616783 Ry
:3PP003: 3P*                -56.437591418 Ry
:3P 003: 3P                 -53.022580412 Ry
:3DD003: 3D*                -37.270961345 Ry
:3D 003: 3D                 -36.561305674 Ry
:4S 003: 4S                  -9.913155003 Ry
:4PP003: 4P*                 -6.897935188 Ry
:4P 003: 4P                  -6.267971101 Ry

        4.ATOM      Sb2                  12 CORE STATES
       CORE-FORCE in mRy/a.u. = |F|      Fx             Fy             Fz
:FCO004:   4.ATOM    697.828983773407      0.000000000000      0.000000000000    697.828983773407

:1S 004: 1S               -2224.881748911 Ry
:2S 004: 2S                -337.582028936 Ry
:2PP004: 2P*               -315.742862092 Ry
:2P 004: 2P                -297.234716299 Ry
:3S 004: 3S                 -65.361616783 Ry
:3PP004: 3P*                -56.437591418 Ry
:3P 004: 3P                 -53.022580412 Ry
:3DD004: 3D*                -37.270961345 Ry
:3D 004: 3D                 -36.561305674 Ry
:4S 004: 4S                  -9.913155003 Ry
:4PP004: 4P*                 -6.897935188 Ry
:4P 004: 4P                  -6.267971101 Ry

        5.ATOM      Mn3                   5 CORE STATES
       CORE-FORCE in mRy/a.u. = |F|      Fx             Fy             Fz
:FCO005:   5.ATOM    199.336475854375      0.000000000000      0.000000000000    199.336475854375

:1S 005: 1S                -471.369084750 Ry
:2S 005: 2S                 -53.482051147 Ry
:2PP005: 2P*                -45.654164767 Ry
:2P 005: 2P                 -44.885964503 Ry
:3S 005: 3S                  -5.042485682 Ry

        6.ATOM      Mn4                   5 CORE STATES
       CORE-FORCE in mRy/a.u. = |F|      Fx             Fy             Fz
:FCO006:   6.ATOM    199.336475845950      0.000000000000      0.000000000000   -199.336475845950

:1S 006: 1S                -471.369084750 Ry
:2S 006: 2S                 -53.482051147 Ry
:2PP006: 2P*                -45.654164767 Ry
:2P 006: 2P                 -44.885964503 Ry
:3S 006: 3S                  -5.042485682 Ry

        1.ATOM      Mn1                   5 CORE STATES
       CORE-FORCE in mRy/a.u. = |F|      Fx             Fy             Fz
:FCO001:   1.ATOM      0.000000005212      0.000000000000      0.000000000000     -0.000000005212

:1S 001: 1S                -471.391596506 Ry
:2S 001: 2S                 -53.505160591 Ry
:2PP001: 2P*                -45.677148149 Ry
:2P 001: 2P                 -44.908959382 Ry
:3S 001: 3S                  -5.071533924 Ry

        2.ATOM      Mn2                   5 CORE STATES
       CORE-FORCE in mRy/a.u. = |F|      Fx             Fy             Fz
:FCO002:   2.ATOM      0.000000009442      0.000000000000      0.000000000000      0.000000009442

:1S 002: 1S                -471.391596506 Ry
:2S 002: 2S                 -53.505160591 Ry
:2PP002: 2P*                -45.677148149 Ry
:2P 002: 2P                 -44.908959382 Ry
:3S 002: 3S                  -5.071533924 Ry

        3.ATOM      Sb1                  12 CORE STATES
       CORE-FORCE in mRy/a.u. = |F|      Fx             Fy             Fz
:FCO003:   3.ATOM    698.748005612793      0.000000000000      0.000000000000   -698.748005612793

:1S 003: 1S               -2224.881748832 Ry
:2S 003: 2S                -337.582028360 Ry
:2PP003: 2P*               -315.742861640 Ry
:2P 003: 2P                -297.234715812 Ry
:3S 003: 3S                 -65.361613503 Ry
:3PP003: 3P*                -56.437588272 Ry
:3P 003: 3P                 -53.022577017 Ry
:3DD003: 3D*                -37.270958443 Ry
:3D 003: 3D                 -36.561302703 Ry
:4S 003: 4S                  -9.913131561 Ry
:4PP003: 4P*                 -6.897907932 Ry
:4P 003: 4P                  -6.267941464 Ry

        4.ATOM      Sb2                  12 CORE STATES
       CORE-FORCE in mRy/a.u. = |F|      Fx             Fy             Fz
:FCO004:   4.ATOM    698.748005625385      0.000000000000      0.000000000000    698.748005625385

:1S 004: 1S               -2224.881748832 Ry
:2S 004: 2S                -337.582028360 Ry
:2PP004: 2P*               -315.742861640 Ry
:2P 004: 2P                -297.234715812 Ry
:3S 004: 3S                 -65.361613503 Ry
:3PP004: 3P*                -56.437588272 Ry
:3P 004: 3P                 -53.022577017 Ry
:3DD004: 3D*                -37.270958443 Ry
:3D 004: 3D                 -36.561302703 Ry
:4S 004: 4S                  -9.913131561 Ry
:4PP004: 4P*                 -6.897907932 Ry
:4P 004: 4P                  -6.267941464 Ry

        5.ATOM      Mn3                   5 CORE STATES
       CORE-FORCE in mRy/a.u. = |F|      Fx             Fy             Fz
:FCO005:   5.ATOM    198.516879469975      0.000000000000      0.000000000000    198.516879469975

:1S 005: 1S                -471.368230615 Ry
:2S 005: 2S                 -53.633359547 Ry
:2PP005: 2P*                -45.767138573 Ry
:2P 005: 2P                 -45.002056010 Ry
:3S 005: 3S                  -5.418455803 Ry

        6.ATOM      Mn4                   5 CORE STATES
       CORE-FORCE in mRy/a.u. = |F|      Fx             Fy             Fz
:FCO006:   6.ATOM    198.516879486730      0.000000000000      0.000000000000   -198.516879486730

:1S 006: 1S                -471.368230615 Ry
:2S 006: 2S                 -53.633359547 Ry
:2PP006: 2P*                -45.767138573 Ry
:2P 006: 2P                 -45.002056010 Ry
:3S 006: 3S                  -5.418455803 Ry
:CINT001 Core Integral Atom   1 Up    5.999552 Dn   5.999472 Total  11.999025
:CINT002 Core Integral Atom   2 Up    5.999552 Dn   5.999472 Total  11.999025
:CINT003 Core Integral Atom   3 Up   17.999299 Dn  17.999299 Total  35.998599
:CINT004 Core Integral Atom   4 Up   17.999299 Dn  17.999299 Total  35.998599
:CINT005 Core Integral Atom   5 Up    5.999491 Dn   5.999567 Total  11.999058
:CINT006 Core Integral Atom   6 Up    5.999491 Dn   5.999567 Total  11.999058

       DENSITY AT NUCLEUS
        JATOM        VALENCE       SEMI-CORE          CORE           TOTAL
:RTO001:   1        5.482669        0.000000    13329.550641    13335.033310
:RTO002:   2        5.482669        0.000000    13329.550641    13335.033310
:RTO003:   3       90.020760        0.000000   229672.788514   229762.809273
:RTO004:   4       90.020761        0.000000   229672.788514   229762.809274
:RTO005:   5        4.840186        0.000000    13329.732845    13334.573031
:RTO006:   6        4.840186        0.000000    13329.732845    13334.573031

       HYPERFINE FIELDS FOR THOMSON RADIUS
:HFF001:          379.975           0.000        -573.294        -193.319 (KGAUSS)
:HFF002:          379.975           0.000        -573.294        -193.319 (KGAUSS)
:HFF003:          -49.724           0.000          -0.353         -50.077 (KGAUSS)
:HFF004:          -49.724           0.000          -0.353         -50.077 (KGAUSS)
:HFF005:         -643.230           0.000         579.300         -63.930 (KGAUSS)
:HFF006:         -643.230           0.000         579.300         -63.930 (KGAUSS)
     
       CHARGES OF NEW CHARGE DENSITY
:NTO   : INTERSTITIAL     UP =     3.993719 DN =     4.323668 TOT =     8.317388
:NPC   : PW Pseudocharge  UP =     7.691672 DN =     8.169290 TOT =    15.860961
:NTO001: CHARGE SPHERE  1 UP =    13.910749 DN =    10.548877 TOT =    24.459627
:NTO002: CHARGE SPHERE  2 UP =    13.910749 DN =    10.548877 TOT =    24.459626
:NTO003: CHARGE SPHERE  3 UP =    24.359079 DN =    24.380314 TOT =    48.739393
:NTO004: CHARGE SPHERE  4 UP =    24.359079 DN =    24.380314 TOT =    48.739393
:NTO005: CHARGE SPHERE  5 UP =     9.746446 DN =    13.892503 TOT =    23.638948
:NTO006: CHARGE SPHERE  6 UP =     9.746446 DN =    13.892503 TOT =    23.638948

:NEC01: NUCLEAR AND ELECTRONIC CHARGE    202.00000   201.99332
     
       CHARGES OF OLD CHARGE DENSITY
:OTO   : INTERSTITIAL     UP =     4.025138 DN =     4.045303 TOT =     8.070440
:OPC   : PW Pseudocharge  UP =    12.379829 DN =    12.359741 TOT =    24.739570
:OTO001: CHARGE SPHERE  1 UP =    14.437284 DN =     9.628071 TOT =    24.065355
:OTO002: CHARGE SPHERE  2 UP =    14.437284 DN =     9.628071 TOT =    24.065355
:OTO003: CHARGE SPHERE  3 UP =    24.509862 DN =    24.502022 TOT =    49.011883
:OTO004: CHARGE SPHERE  4 UP =    24.509862 DN =    24.502022 TOT =    49.011883
:OTO005: CHARGE SPHERE  5 UP =     9.542161 DN =    14.349123 TOT =    23.891284
:OTO006: CHARGE SPHERE  6 UP =     9.542161 DN =    14.349123 TOT =    23.891284

:NEC02: NUCLEAR AND ELECTRONIC CHARGE    202.00000   202.00748
     
       CONVERGENCE TEST
:DTO001: DIFFERENCE SPHERE  1 UP =  0.5956662 DN =  0.8098684 TOT =  1.4055346
:DTO002: DIFFERENCE SPHERE  2 UP =  0.5956662 DN =  0.8098684 TOT =  1.4055346
:DTO003: DIFFERENCE SPHERE  3 UP =  0.0970740 DN =  0.0873999 TOT =  0.1844739
:DTO004: DIFFERENCE SPHERE  4 UP =  0.0970740 DN =  0.0873999 TOT =  0.1844739
:DTO005: DIFFERENCE SPHERE  5 UP =  0.2728771 DN =  0.4885299 TOT =  0.7614070
:DTO006: DIFFERENCE SPHERE  6 UP =  0.2728771 DN =  0.4885299 TOT =  0.7614070

:DIS  :  CHARGE DISTANCE       ( 0.8098684 for atom    1 spin 2)      1.5676103
 PW Mixed is          661
 
******************************************************
* MULTISECANT MIXING VER9 RELEASE 10.4.0              *
* Standard Mode with controls                        *
* Fixed density scale                                *
* Regularization       1.000E-04                     *
* Trust Upper Limit    5.000E+00                     *
* Max Number of Memory Steps    8                    *
******************************************************
 
:PWTMP   3.4441E+02  7.5000E+02  7.3711E+02
:PLANE:  PW TOTAL      5.5237 DISTAN   2.91E+00  5.26E+01 %
:CHARG:  CLM/ATOM    134.0230 DISTAN   2.78E-01  2.07E-01 %
INFO: Reducing dbase  2.50000E-02 1.56761E+00 1.99674E-02
 
Step History
        DMIX         DMIXT        Red     Pred      Trust     Lambda    MagRel    MagAbs     Beta
  1   3.5000E-02   3.5000E-02 -1.00E+00  1.00E+00 -1.00E+01  1.00E+00  3.50E-02  3.50E-02  1.00E+00
:INFO :  Note, Pratt in use
INFO: Reducing dbase  1.99674E-02 1.56761E+00 1.59478E-02
:TRUST:  Step 2.80E-02  Charge 7.50E-02 (e) CTO  2.50E-01 (e) PW  3.50E-01 (e)
:DIRM :  MEMORY  0/ 8 SCALE   1.000
Performing Pseudo Compensation
Final Pseudo Compensation Rescaling     1.00003E+00
Final Pseudo Compensation Rescaling     1.00012E+00
:MIX  :   PRATT  REGULARIZATION:  1.00E-04 GREED: 0.01870                  
     
       CHARGES OF MIXED CHARGE DENSITY
:CTO   : INTERSTITIAL     UP =     4.020947 DN =     4.046891 TOT =     8.067838
:CPC   : PW Pseudocharge  UP =     9.058848 DN =     9.219931 TOT =    18.278778
:CTO001: CHARGE SPHERE  1 UP =    14.427439 DN =     9.645289 TOT =    24.072727
:CTO002: CHARGE SPHERE  2 UP =    14.427439 DN =     9.645289 TOT =    24.072727
:CTO003: CHARGE SPHERE  3 UP =    24.507043 DN =    24.499746 TOT =    49.006788
:CTO004: CHARGE SPHERE  4 UP =    24.507043 DN =    24.499746 TOT =    49.006788
:CTO005: CHARGE SPHERE  5 UP =     9.545981 DN =    14.340585 TOT =    23.886566
:CTO006: CHARGE SPHERE  6 UP =     9.545981 DN =    14.340585 TOT =    23.886566

       SPIN MAGNETIC MOMENTS OF MIXED CHARGE DENSITY
:MMINT:  MAGNETIC MOMENT IN INTERSTITIAL  =   -0.02594
:MMI001: MAGNETIC MOMENT IN SPHERE   1    =    4.78215
:MMI002: MAGNETIC MOMENT IN SPHERE   2    =    4.78215
:MMI003: MAGNETIC MOMENT IN SPHERE   3    =    0.00730
:MMI004: MAGNETIC MOMENT IN SPHERE   4    =    0.00730
:MMI005: MAGNETIC MOMENT IN SPHERE   5    =   -4.79460
:MMI006: MAGNETIC MOMENT IN SPHERE   6    =   -4.79460
:MMTOT:  SPIN MAGNETIC MOMENT IN CELL     =   -0.03626

:NEC03: NUCLEAR AND ELECTRONIC CHARGE    202.00000   202.00000

PW CHANGE     H    K    L             Current                    Change               Residue
:PUP001:      0    0    0  1.77447745E-02 0.00000000E+00 -4.490E-03  0.000E+00 -6.369E-03  0.000E+00
:PUP002:      0    0   -1  2.54765791E-03 1.21975864E-18 -1.577E-03  1.220E-18 -1.906E-03  0.000E+00
:PUP003:      0    0    1  2.54765791E-03-1.21975864E-18 -1.577E-03 -1.220E-18 -1.906E-03  0.000E+00
:PUP006:     -1    0   -1 -4.66150199E-17 5.48771764E-03 -4.586E-17 -1.964E-03 -4.203E-17 -2.624E-03
:PUP007:     -1    0    1 -4.66150199E-17-5.48771764E-03 -4.586E-17  1.964E-03 -4.203E-17  2.624E-03
:PUP008:      0   -1   -1  1.35052031E-17-5.48771764E-03  1.375E-17  1.964E-03 -5.419E-18  2.624E-03
:PUP009:      0   -1    1  1.35052031E-17 5.48771764E-03  1.375E-17 -1.964E-03 -5.419E-18 -2.624E-03
:PUP010:      0    0   -2 -1.45111288E-03 5.08232769E-18 -4.333E-05  5.082E-18 -3.258E-04  0.000E+00
:PUP011:      0    0    2 -1.45111288E-03-5.08232769E-18 -4.333E-05 -5.082E-18 -3.258E-04  0.000E+00
:PUP012:     -1   -1    0 -5.11566672E-03-5.64031049E-20  4.688E-04 -5.640E-20  4.383E-04  0.000E+00
:PUP013:     -1   -1   -1  4.99474547E-03 1.08422991E-19 -7.014E-03  1.084E-19 -8.517E-03  0.000E+00
:PUP014:     -1   -1    1  4.99474547E-03 1.62634486E-18 -7.014E-03  1.626E-18 -8.517E-03  0.000E+00
  
:PDN001:      0    0    0  1.79985052E-02 0.00000000E+00 -4.237E-03  0.000E+00 -5.273E-03  0.000E+00
:PDN002:      0    0   -1 -3.39954579E-04 1.30119223E-18  5.887E-04  1.301E-18  1.958E-03  0.000E+00
:PDN003:      0    0    1 -3.39954579E-04-1.30119223E-18  5.887E-04 -1.301E-18  1.958E-03  0.000E+00
:PDN006:     -1    0   -1 -2.72351509E-17 2.82981960E-03 -2.453E-17  5.737E-04 -9.817E-18  8.117E-04
:PDN007:     -1    0    1 -2.72351509E-17-2.82981960E-03 -2.453E-17 -5.737E-04 -9.817E-18 -8.117E-04
:PDN008:      0   -1   -1 -1.96503237E-18-2.82981960E-03 -1.815E-18 -5.737E-04 -1.876E-17 -8.117E-04
:PDN009:      0   -1    1 -1.96503237E-18 2.82981960E-03 -1.815E-18  5.737E-04 -1.876E-17  8.117E-04
:PDN010:      0    0   -2 -3.71287136E-03 1.35540857E-18  2.378E-03  1.355E-18  3.143E-03  0.000E+00
:PDN011:      0    0    2 -3.71287136E-03-1.35540857E-18  2.378E-03 -1.355E-18  3.143E-03  0.000E+00
:PDN012:     -1   -1    0 -1.24899042E-02-1.20107151E-18  1.004E-02 -1.201E-18  1.240E-02  0.000E+00
:PDN013:     -1   -1   -1  3.19078479E-03-8.67461488E-18 -3.589E-03 -8.675E-18 -4.920E-03  0.000E+00
:PDN014:     -1   -1    1  3.19078479E-03 8.67461488E-18 -3.589E-03  8.675E-18 -4.920E-03  0.000E+00

:ENE  : ********** TOTAL ENERGY IN Ry =       -35203.66834882

       TOTAL FORCE IN mRy/a.u. = |F|     Fx             Fy             Fz     with/without FOR in case.in2
:FOR001:   1.ATOM          0.000          0.000          0.000          0.000 partial forces
:FOR002:   2.ATOM          0.000          0.000          0.000          0.000 partial forces
:FOR003:   3.ATOM        226.885          0.000          0.000        226.885 partial forces
:FOR004:   4.ATOM        226.885          0.000          0.000       -226.885 partial forces
:FOR005:   5.ATOM        194.268          0.000          0.000       -194.268 partial forces
:FOR006:   6.ATOM        194.268          0.000          0.000        194.268 partial forces
       TOTAL FORCE WITH RESPECT TO GLOBAL CARTESIAN COORDINATES:
:FCA001:   1.ATOM                         0.000          0.000          0.000 partial forces
:FCA002:   2.ATOM                         0.000          0.000          0.000 partial forces
:FCA003:   3.ATOM                         0.000          0.000        226.885 partial forces
:FCA004:   4.ATOM                         0.000          0.000       -226.885 partial forces
:FCA005:   5.ATOM                         0.000          0.000       -194.268 partial forces
:FCA006:   6.ATOM                         0.000          0.000        194.268 partial forces
       TOTAL FORCE WITH RESPECT TO THE GLOBAL COORDINATE SYSTEM:
:FGL001:   1.ATOM                 0.000000000     0.000000000     0.000000000 partial forces
:FGL002:   2.ATOM                 0.000000000     0.000000000     0.000000006 partial forces
:FGL003:   3.ATOM                 0.000000000     0.000000000   226.884906490 partial forces
:FGL004:   4.ATOM                 0.000000000     0.000000000  -226.884906497 partial forces
:FGL005:   5.ATOM                 0.000000000     0.000000000  -194.268292523 partial forces
:FGL006:   6.ATOM                 0.000000000     0.000000000   194.268292519 partial forces
 Flat Integration
 New Mode for Coulomb Integral
 Consistent 3/8+Simpson combinations
 Extension of core to zero
 LDM version in phi
 Fifth-order quadrature in outwin


            ---------
:ITE002:  2. ITERATION
            ---------

:NATO :    6 INDEPENDENT AND    6 TOTAL ATOMS IN UNITCELL
       SUBSTANCE: Mn2Sb (according to Wijngaard et al. '92)                   

       LATTICE                      = P   
:POT  : POTENTIAL OPTION EX_PBE EC_PBE VX_PBE VC_PBE
:LAT  : LATTICE CONSTANTS=  7.71000  7.71000 12.40000    1.571    1.571    1.571
:VOL  : UNIT CELL VOLUME =     737.10684
       MODE OF CALCULATION IS       = RELA
       SPINPOLARIZED CALCULATION
:IFFT  : FFT-parameters:   60   60   96 Factor: 2.00


   CONVERGENCE PARAMETER FOR PSEUDOCHARGE: NCON=  9
   MAXIMAL VALUE OF RMT(JATOM)*ABSK(NKK) : RK  =29.99674


:VKCOUL :  VK-COUL convergence: 0.111E-08
       ATOMNUMBER=  1 Mn1        VCOUL-ZERO =  0.44264E+00
:EFG001:                        EFG         =     0.07369   *10**21  V / m**2
                               V20  TOT/SRF=     0.06382     0.01444
                               V22  TOT/SRF=     0.00000     0.00000
                               V22M TOT/SRF=     0.00000     0.00000
                               V21  TOT/SRF=     0.00000     0.00000
                               V21M TOT/SRF=     0.00000     0.00000

             -0.03684    0.00000    0.00000       -0.03684    0.00000    0.00000
              0.00000   -0.03684    0.00000        0.00000   -0.03684    0.00000
              0.00000    0.00000    0.07369        0.00000    0.00000    0.07369

         MAIN DIRECTIONS OF THE EFG   1.0000  0.0000  0.0000
                                      0.0000  1.0000  0.0000
                                      0.0000  0.0000  1.0000
:ANG001:  ANGLE WITH OLD X-AXIS =         0.0

:ETA001:                         ASYMM. ETA =     0.00000


       ATOMNUMBER=  2 Mn2        VCOUL-ZERO =  0.44264E+00
:EFG002:                        EFG         =     0.07369   *10**21  V / m**2
                               V20  TOT/SRF=     0.06382     0.01444
                               V22  TOT/SRF=    -0.00000    -0.00000
                               V22M TOT/SRF=     0.00000     0.00000
                               V21  TOT/SRF=     0.00000     0.00000
                               V21M TOT/SRF=     0.00000     0.00000

             -0.03684    0.00000    0.00000       -0.03684    0.00000    0.00000
              0.00000   -0.03684    0.00000        0.00000   -0.03684    0.00000
              0.00000    0.00000    0.07369        0.00000    0.00000    0.07369

         MAIN DIRECTIONS OF THE EFG   1.0000  0.0000  0.0000
                                      0.0000  1.0000  0.0000
                                      0.0000  0.0000  1.0000
:ANG002:  ANGLE WITH OLD X-AXIS =         0.0

:ETA002:                         ASYMM. ETA =     0.00000


       ATOMNUMBER=  3 Sb1        VCOUL-ZERO =  0.38188E+00
:EFG003:                        EFG         =     0.04361   *10**21  V / m**2
                               V20  TOT/SRF=     0.03777     0.01873
                               V22  TOT/SRF=     0.00000     0.00000
                               V22M TOT/SRF=     0.00000     0.00000
                               V21  TOT/SRF=     0.00000     0.00000
                               V21M TOT/SRF=     0.00000     0.00000

             -0.02180    0.00000    0.00000       -0.02180    0.00000    0.00000
              0.00000   -0.02180    0.00000        0.00000   -0.02180    0.00000
              0.00000    0.00000    0.04361        0.00000    0.00000    0.04361

         MAIN DIRECTIONS OF THE EFG   1.0000  0.0000  0.0000
                                      0.0000  1.0000  0.0000
                                      0.0000  0.0000  1.0000
:ANG003:  ANGLE WITH OLD X-AXIS =         0.0

:ETA003:                         ASYMM. ETA =     0.00000


       ATOMNUMBER=  4 Sb2        VCOUL-ZERO =  0.38188E+00
:EFG004:                        EFG         =     0.04361   *10**21  V / m**2
                               V20  TOT/SRF=     0.03777     0.01873
                               V22  TOT/SRF=    -0.00000    -0.00000
                               V22M TOT/SRF=     0.00000     0.00000
                               V21  TOT/SRF=     0.00000     0.00000
                               V21M TOT/SRF=     0.00000     0.00000

             -0.02180    0.00000    0.00000       -0.02180    0.00000    0.00000
              0.00000   -0.02180    0.00000        0.00000   -0.02180    0.00000
              0.00000    0.00000    0.04361        0.00000    0.00000    0.04361

         MAIN DIRECTIONS OF THE EFG   1.0000  0.0000  0.0000
                                      0.0000  1.0000  0.0000
                                      0.0000  0.0000  1.0000
:ANG004:  ANGLE WITH OLD X-AXIS =         0.0

:ETA004:                         ASYMM. ETA =     0.00000


       ATOMNUMBER=  5 Mn3        VCOUL-ZERO =  0.50626E+00
:EFG005:                        EFG         =     0.02830   *10**21  V / m**2
                               V20  TOT/SRF=     0.02451     0.01496
                               V22  TOT/SRF=     0.00000     0.00000
                               V22M TOT/SRF=     0.00000     0.00000
                               V21  TOT/SRF=     0.00000     0.00000
                               V21M TOT/SRF=     0.00000     0.00000

             -0.01415    0.00000    0.00000       -0.01415    0.00000    0.00000
              0.00000   -0.01415    0.00000        0.00000   -0.01415    0.00000
              0.00000    0.00000    0.02830        0.00000    0.00000    0.02830

         MAIN DIRECTIONS OF THE EFG   1.0000  0.0000  0.0000
                                      0.0000  1.0000  0.0000
                                      0.0000  0.0000  1.0000
:ANG005:  ANGLE WITH OLD X-AXIS =         0.0

:ETA005:                         ASYMM. ETA =     0.00000


       ATOMNUMBER=  6 Mn4        VCOUL-ZERO =  0.50626E+00
:EFG006:                        EFG         =     0.02830   *10**21  V / m**2
                               V20  TOT/SRF=     0.02451     0.01496
                               V22  TOT/SRF=     0.00000    -0.00000
                               V22M TOT/SRF=     0.00000     0.00000
                               V21  TOT/SRF=     0.00000     0.00000
                               V21M TOT/SRF=     0.00000     0.00000

             -0.01415    0.00000    0.00000       -0.01415    0.00000    0.00000
              0.00000   -0.01415    0.00000        0.00000   -0.01415    0.00000
              0.00000    0.00000    0.02830        0.00000    0.00000    0.02830

         MAIN DIRECTIONS OF THE EFG   1.0000  0.0000  0.0000
                                      0.0000  1.0000  0.0000
                                      0.0000  0.0000  1.0000
:ANG006:  ANGLE WITH OLD X-AXIS =         0.0

:ETA006:                         ASYMM. ETA =     0.00000


     HELLMANN-FEYNMAN-FORCE IN mRy/a.u. = |F|  Fx       Fy             Fz
:FHF001:   1.ATOM      0.000001115194      0.000000000000      0.000000000000      0.000001115194

     HELLMANN-FEYNMAN-FORCE IN mRy/a.u. = |F|  Fx       Fy             Fz
:FHF002:   2.ATOM      0.000001143042      0.000000000000      0.000000000000      0.000001143042

     HELLMANN-FEYNMAN-FORCE IN mRy/a.u. = |F|  Fx       Fy             Fz
:FHF003:   3.ATOM    732.951412313975      0.000000000000      0.000000000000    732.951412313975

     HELLMANN-FEYNMAN-FORCE IN mRy/a.u. = |F|  Fx       Fy             Fz
:FHF004:   4.ATOM    732.951412439871      0.000000000000      0.000000000000   -732.951412439871

     HELLMANN-FEYNMAN-FORCE IN mRy/a.u. = |F|  Fx       Fy             Fz
:FHF005:   5.ATOM    292.449084461534      0.000000000000      0.000000000000   -292.449084461534

     HELLMANN-FEYNMAN-FORCE IN mRy/a.u. = |F|  Fx       Fy             Fz
:FHF006:   6.ATOM    292.449083606051      0.000000000000      0.000000000000    292.449083606051

:FIT001: LUSE= 13 SIGMA OF V-XC FIT FOR ATOM  1  0.3041117E-02
:FIT001: LUSE= 13 SIGMA OF V-XC FIT FOR ATOM  1  0.5728916E-02
:FIT002: LUSE= 13 SIGMA OF V-XC FIT FOR ATOM  2  0.3041117E-02
:FIT002: LUSE= 13 SIGMA OF V-XC FIT FOR ATOM  2  0.5728916E-02
:FIT003: LUSE= 13 SIGMA OF V-XC FIT FOR ATOM  3  0.7989015E-03
:FIT003: LUSE= 13 SIGMA OF V-XC FIT FOR ATOM  3  0.8038048E-03
:FIT004: LUSE= 13 SIGMA OF V-XC FIT FOR ATOM  4  0.7989015E-03
:FIT004: LUSE= 13 SIGMA OF V-XC FIT FOR ATOM  4  0.8038048E-03
:FIT005: LUSE= 13 SIGMA OF V-XC FIT FOR ATOM  5  0.4083640E-02
:FIT005: LUSE= 13 SIGMA OF V-XC FIT FOR ATOM  5  0.2930885E-02
:FIT006: LUSE= 13 SIGMA OF V-XC FIT FOR ATOM  6  0.4083640E-02
:FIT006: LUSE= 13 SIGMA OF V-XC FIT FOR ATOM  6  0.2930885E-02
:DEN  : DENSITY INTEGRAL  =        -14127.24465939   (Ry)
       ELS_POTENTIAL_AT Z=0 and Z=0.5:  -0.35977   0.73515
       ELS_POTENTIAL_AT Y=0 and Y=0.5:  -0.48391  -0.48391
:VZERO:v0,v0c,v0x  -1.11327  -0.35977  -0.75349 v5,v5c,v5x   0.13757   0.73515  -0.59759
:VZERY:v0,v0c,v0x  -1.20976  -0.48391  -0.72585 v5,v5c,v5x  -1.20976  -0.48391  -0.72585
:VZERX:v0,v0c,v0x  -1.20976  -0.48391  -0.72585 v5,v5c,v5x  -1.20976  -0.48391  -0.72585
:LMAX-WF:   10   Non-Spherical LMAX:   4

          ATOMIC SPHERE DEPENDENT PARAMETERS FOR ATOM  Mn1       
:e__0001: OVERALL ENERGY PARAMETER IS    0.3576
          OVERALL BASIS SET ON ATOM IS LAPW
:E1_0001: E( 1)=    0.3576
             APW+lo
:E1_0001: E( 1)=   -3.1689   E(BOTTOM)=   -3.203   E(TOP)=   -3.134  1  2   162
             LOCAL ORBITAL
:E2_0001: E( 2)=    0.2963   E(BOTTOM)=    0.068   E(TOP)=    0.524  0  1   121
             APW+lo
:E0_0001: E( 0)=    0.3576
             APW+lo

          ATOMIC SPHERE DEPENDENT PARAMETERS FOR ATOM  Mn2       
:e__0002: OVERALL ENERGY PARAMETER IS    0.3576
          OVERALL BASIS SET ON ATOM IS LAPW
:E1_0002: E( 1)=    0.3576
             APW+lo
:E1_0002: E( 1)=   -3.1689   E(BOTTOM)=   -3.203   E(TOP)=   -3.134  1  2   162
             LOCAL ORBITAL
:E2_0002: E( 2)=    0.2963   E(BOTTOM)=    0.068   E(TOP)=    0.524  0  1   121
             APW+lo
:E0_0002: E( 0)=    0.3576
             APW+lo

          ATOMIC SPHERE DEPENDENT PARAMETERS FOR ATOM  Sb1       
:e__0003: OVERALL ENERGY PARAMETER IS    0.3576
          OVERALL BASIS SET ON ATOM IS LAPW
:E2_0003: E( 2)=    0.3576
             APW+lo
:E2_0003: E( 2)=   -1.5028   E(BOTTOM)=   -1.589   E(TOP)=   -1.416  1  2   158
             LOCAL ORBITAL
:E0_0003: E( 0)=    0.7576
             APW+lo
:E0_0003: E( 0)=   -0.6300   E(BOTTOM)=   -0.819   E(TOP)= -200.000  4 -1   141
             LOCAL ORBITAL
:E1_0003: E( 1)=    0.3576
             APW+lo

          ATOMIC SPHERE DEPENDENT PARAMETERS FOR ATOM  Sb2       
:e__0004: OVERALL ENERGY PARAMETER IS    0.3576
          OVERALL BASIS SET ON ATOM IS LAPW
:E2_0004: E( 2)=    0.3576
             APW+lo
:E2_0004: E( 2)=   -1.5028   E(BOTTOM)=   -1.589   E(TOP)=   -1.416  1  2   158
             LOCAL ORBITAL
:E0_0004: E( 0)=    0.7576
             APW+lo
:E0_0004: E( 0)=   -0.6300   E(BOTTOM)=   -0.819   E(TOP)= -200.000  4 -1   141
             LOCAL ORBITAL
:E1_0004: E( 1)=    0.3576
             APW+lo

          ATOMIC SPHERE DEPENDENT PARAMETERS FOR ATOM  Mn3       
:e__0005: OVERALL ENERGY PARAMETER IS    0.3576
          OVERALL BASIS SET ON ATOM IS LAPW
:E1_0005: E( 1)=    0.3576
             APW+lo
:E1_0005: E( 1)=   -2.7907   E(BOTTOM)=   -2.828   E(TOP)=   -2.753  1  2   160
             LOCAL ORBITAL
:E2_0005: E( 2)=    0.6513   E(BOTTOM)=    0.398   E(TOP)=    0.904  0  1   127
             APW+lo
:E0_0005: E( 0)=    0.3576
             APW+lo

          ATOMIC SPHERE DEPENDENT PARAMETERS FOR ATOM  Mn4       
:e__0006: OVERALL ENERGY PARAMETER IS    0.3576
          OVERALL BASIS SET ON ATOM IS LAPW
:E1_0006: E( 1)=    0.3576
             APW+lo
:E1_0006: E( 1)=   -2.7907   E(BOTTOM)=   -2.828   E(TOP)=   -2.753  1  2   160
             LOCAL ORBITAL
:E2_0006: E( 2)=    0.6513   E(BOTTOM)=    0.398   E(TOP)=    0.904  0  1   127
             APW+lo
:E0_0006: E( 0)=    0.3576
             APW+lo

       K=   0.03571   0.03571   0.05556            1
:RKM  : MATRIX SIZE   367LOs:  78  RKM= 6.99  WEIGHT= 8.00  PGR:    
       EIGENVALUES ARE:
:EIG00001:      -3.1639547   -3.1638685   -3.1628262   -3.1616040   -3.1584878
:EIG00006:      -3.1584170   -2.7837186   -2.7834685   -2.7825179   -2.7824969
:EIG00011:      -2.7824274   -2.7824213   -1.4845727   -1.4842222   -1.4836166
:EIG00016:      -1.4835745   -1.4833577   -1.4832940   -1.4831521   -1.4828730
:EIG00021:      -1.4828496   -1.4821722   -0.2858961   -0.1587519    0.1030238
:EIG00026:       0.1944725    0.2247512    0.2272250    0.2330141    0.3075888
:EIG00031:       0.3148322    0.3297741    0.3323040    0.3799203    0.3990357
:EIG00036:       0.4059517    0.4306751    0.4938453    0.5597304    0.5770005
:EIG00041:       0.6005971    0.6015291    0.6148381    0.6313159    0.6528001
:EIG00046:       0.6735178    0.6752380    0.6902483    0.6964935    0.7537130
 
:EIG00051:       0.7691080    0.8027481    0.9454038    0.9719310    0.9824227
:EIG00056:       1.0360730    1.0493406    1.1263922    1.1776512    1.2017986
:EIG00061:       1.2228152    1.3377382    1.3674843    1.3732563    1.4957873
:EIG00066:       1.5105215    1.5200367    1.5291470    1.6163597    1.6175653
:EIG00071:       1.6275176    1.6445928    1.6672995    1.6726422    1.7419210
:EIG00076:       1.8350371    1.8608849    1.8814561    1.9734099    2.0298321
       ********************************************************

:KPT   :      NUMBER OF K-POINTS:   245
:LMAX-WF:   10   Non-Spherical LMAX:   4

          ATOMIC SPHERE DEPENDENT PARAMETERS FOR ATOM  Mn1       
:e__0001: OVERALL ENERGY PARAMETER IS    0.3576
          OVERALL BASIS SET ON ATOM IS LAPW
:E1_0001: E( 1)=    0.3576
             APW+lo
:E1_0001: E( 1)=   -2.8044   E(BOTTOM)=   -2.843   E(TOP)=   -2.766  1  2   197
             LOCAL ORBITAL
:E2_0001: E( 2)=    0.6254   E(BOTTOM)=    0.361   E(TOP)=    0.889  0  1   121
             APW+lo
:E0_0001: E( 0)=    0.3576
             APW+lo

          ATOMIC SPHERE DEPENDENT PARAMETERS FOR ATOM  Mn2       
:e__0002: OVERALL ENERGY PARAMETER IS    0.3576
          OVERALL BASIS SET ON ATOM IS LAPW
:E1_0002: E( 1)=    0.3576
             APW+lo
:E1_0002: E( 1)=   -2.8044   E(BOTTOM)=   -2.843   E(TOP)=   -2.766  1  2   196
             LOCAL ORBITAL
:E2_0002: E( 2)=    0.6254   E(BOTTOM)=    0.361   E(TOP)=    0.889  0  1   121
             APW+lo
:E0_0002: E( 0)=    0.3576
             APW+lo

          ATOMIC SPHERE DEPENDENT PARAMETERS FOR ATOM  Sb1       
:e__0003: OVERALL ENERGY PARAMETER IS    0.3576
          OVERALL BASIS SET ON ATOM IS LAPW
:E2_0003: E( 2)=    0.3576
             APW+lo
:E2_0003: E( 2)=   -1.5028   E(BOTTOM)=   -1.589   E(TOP)=   -1.416  1  2   160
             LOCAL ORBITAL
:E0_0003: E( 0)=    0.7576
             APW+lo
:E0_0003: E( 0)=   -0.6300   E(BOTTOM)=   -0.819   E(TOP)= -200.000  4 -1   144
             LOCAL ORBITAL
:E1_0003: E( 1)=    0.3576
             APW+lo

          ATOMIC SPHERE DEPENDENT PARAMETERS FOR ATOM  Sb2       
:e__0004: OVERALL ENERGY PARAMETER IS    0.3576
          OVERALL BASIS SET ON ATOM IS LAPW
:E2_0004: E( 2)=    0.3576
             APW+lo
:E2_0004: E( 2)=   -1.5028   E(BOTTOM)=   -1.589   E(TOP)=   -1.416  1  2   160
             LOCAL ORBITAL
:E0_0004: E( 0)=    0.7576
             APW+lo
:E0_0004: E( 0)=   -0.6300   E(BOTTOM)=   -0.819   E(TOP)= -200.000  4 -1   144
             LOCAL ORBITAL
:E1_0004: E( 1)=    0.3576
             APW+lo

          ATOMIC SPHERE DEPENDENT PARAMETERS FOR ATOM  Mn3       
:e__0005: OVERALL ENERGY PARAMETER IS    0.3576
          OVERALL BASIS SET ON ATOM IS LAPW
:E1_0005: E( 1)=    0.3576
             APW+lo
:E1_0005: E( 1)=   -3.1575   E(BOTTOM)=   -3.191   E(TOP)=   -3.124  1  2   124
             LOCAL ORBITAL
:E2_0005: E( 2)=    0.3172   E(BOTTOM)=    0.097   E(TOP)=    0.537  0  1   129
             APW+lo
:E0_0005: E( 0)=    0.3576
             APW+lo

          ATOMIC SPHERE DEPENDENT PARAMETERS FOR ATOM  Mn4       
:e__0006: OVERALL ENERGY PARAMETER IS    0.3576
          OVERALL BASIS SET ON ATOM IS LAPW
:E1_0006: E( 1)=    0.3576
             APW+lo
:E1_0006: E( 1)=   -3.1575   E(BOTTOM)=   -3.191   E(TOP)=   -3.124  1  2   124
             LOCAL ORBITAL
:E2_0006: E( 2)=    0.3172   E(BOTTOM)=    0.097   E(TOP)=    0.537  0  1   129
             APW+lo
:E0_0006: E( 0)=    0.3576
             APW+lo

       K=   0.03571   0.03571   0.05556            1
:RKM  : MATRIX SIZE   367LOs:  78  RKM= 6.99  WEIGHT= 8.00  PGR:    
       EIGENVALUES ARE:
:EIG00001:      -3.1511449   -3.1510165   -3.1500179   -3.1499971   -3.1499313
:EIG00006:      -3.1499239   -2.7993316   -2.7992269   -2.7975576   -2.7960521
:EIG00011:      -2.7927127   -2.7926231   -1.4845835   -1.4842501   -1.4834218
:EIG00016:      -1.4833986   -1.4832065   -1.4831286   -1.4830869   -1.4828517
:EIG00021:      -1.4827188   -1.4820025   -0.2769465   -0.1576023    0.1450271
:EIG00026:       0.2881459    0.3047964    0.3065352    0.3100293    0.3194571
:EIG00031:       0.3194884    0.3202381    0.3204466    0.3274426    0.3376866
:EIG00036:       0.3680558    0.4124396    0.4172493    0.4611203    0.4645629
:EIG00041:       0.5278860    0.5797220    0.5978747    0.6500564    0.6710504
:EIG00046:       0.6714060    0.6938161    0.7198359    0.7679007    0.8007735
 
:EIG00051:       0.8084647    0.8830953    0.9544107    0.9592330    0.9623213
:EIG00056:       0.9929942    1.0545465    1.1524540    1.1706811    1.1784611
:EIG00061:       1.2277535    1.3236539    1.3538722    1.3545412    1.4650271
:EIG00066:       1.4979490    1.5488916    1.5626515    1.5864958    1.5907468
:EIG00071:       1.6564666    1.6660112    1.6792361    1.6862860    1.7133630
:EIG00076:       1.8065433    1.8655284    1.8740538    2.0203155    2.0412626
       ********************************************************

:KPT   :      NUMBER OF K-POINTS:   245
:GAP (global)   :    0.0    Ry =     0.0   eV (metal)
:GAP (this spin):    0.0    Ry =     0.0   eV (metal)
         Bandranges (emin - emax) and occupancy:
:BAN00032:  32    0.274043    0.339254  1.00000000
:BAN00033:  33    0.291628    0.374958  1.00000000
:BAN00034:  34    0.305078    0.380401  1.00000000
:BAN00035:  35    0.329429    0.403035  1.00000000
:BAN00036:  36    0.331302    0.412412  1.00000000
:BAN00037:  37    0.351941    0.462562  1.00000000
:BAN00038:  38    0.353182    0.493845  1.00000000
:BAN00039:  39    0.434797    0.559730  1.00000000
:BAN00040:  40    0.435331    0.585447  0.95731449
:BAN00041:  41    0.538513    0.632252  0.09584604
:BAN00042:  42    0.543380    0.643139  0.03454377
:BAN00043:  43    0.611323    0.666973  0.00000000
:BAN00044:  44    0.619536    0.670033  0.00000000
:BAN00045:  45    0.648222    0.682067  0.00000000
:BAN00046:  46    0.662300    0.697142  0.00000000
:BAN00047:  47    0.675238    0.730440  0.00000000
        Energy to separate low and high energystates:    0.04697


:NOE  : NUMBER OF ELECTRONS          =   82.000

:FER  : F E R M I - ENERGY(TETRAH.M.)=   0.5670778691
:GMA  : POTENTIAL AND CHARGE CUT-OFF  12.00 Ry**.5

:POS001: ATOM   -1 X,Y,Z = 0.00000 0.00000 0.00000  MULT= 1  ZZ= 25.000  Mn1       

       LMMAX 16
       LM=   0 0  1 0  2 0  2 2  3 0  3 2  4 0  4 2  4 4  5 0  5 2  5 4  6 0  6 2  6 4  6 6

:CHA001: TOTAL VALENCE CHARGE INSIDE SPHERE   1 =   7.8842    (RMT=  2.5000 )
:PCS001: PARTIAL CHARGES SPHERE =  1 S,P,D,F,PX,PY,PZ,D-Z2,D-X2Y2,D-XY,D-XZ,D-YZ 
:QTL001: 0.2262 3.2545 4.3899 0.0112 1.0826 1.0826 1.0893 0.8888 0.8818 0.8968 0.8612 0.8612
        Q-s-low E-s-low   Q-p-low E-p-low   Q-d-low E-d-low   Q-f-low E-f-low
:EPL001:  0.0513 -0.2200    3.0272 -3.1283    0.0326 -0.2073    0.0015 -0.6005
        Q-s-hi  E-s-hi    Q-p-hi  E-p-hi    Q-d-hi  E-d-hi    Q-f-hi  E-f-hi 
:EPH001:  0.1749  0.2182    0.2273  0.3296    4.3573  0.3159    0.0097  0.3524

                      VXX         VYY         VZZ       UP TO R
:VZZ001:            -0.12641    -0.12641     0.25283       2.500

:POS002: ATOM   -2 X,Y,Z = 0.50000 0.50000 0.00000  MULT= 1  ZZ= 25.000  Mn2       

       LMMAX 16
       LM=   0 0  1 0  2 0  2 2  3 0  3 2  4 0  4 2  4 4  5 0  5 2  5 4  6 0  6 2  6 4  6 6

:CHA002: TOTAL VALENCE CHARGE INSIDE SPHERE   2 =   7.8842    (RMT=  2.5000 )
:PCS002: PARTIAL CHARGES SPHERE =  2 S,P,D,F,PX,PY,PZ,D-Z2,D-X2Y2,D-XY,D-XZ,D-YZ 
:QTL002: 0.2262 3.2545 4.3899 0.0112 1.0826 1.0826 1.0893 0.8888 0.8818 0.8968 0.8612 0.8612
        Q-s-low E-s-low   Q-p-low E-p-low   Q-d-low E-d-low   Q-f-low E-f-low
:EPL002:  0.0513 -0.2200    3.0272 -3.1283    0.0326 -0.2073    0.0015 -0.6005
        Q-s-hi  E-s-hi    Q-p-hi  E-p-hi    Q-d-hi  E-d-hi    Q-f-hi  E-f-hi 
:EPH002:  0.1749  0.2182    0.2273  0.3296    4.3573  0.3159    0.0097  0.3524

                      VXX         VYY         VZZ       UP TO R
:VZZ002:            -0.12641    -0.12641     0.25283       2.500

:POS003: ATOM   -3 X,Y,Z = 0.00000 0.50000 0.28000  MULT= 1  ZZ= 51.000  Sb1       

       LMMAX 16
       LM=   0 0  1 0  2 0  2 2  3 0  3 2  4 0  4 2  4 4  5 0  5 2  5 4  6 0  6 2  6 4  6 6

:CHA003: TOTAL VALENCE CHARGE INSIDE SPHERE   3 =   6.3656    (RMT=  2.5000 )
:PCS003: PARTIAL CHARGES SPHERE =  3 S,P,D,F,PX,PY,PZ,D-Z2,D-X2Y2,D-XY,D-XZ,D-YZ 
:QTL003: 0.6018 0.7538 4.9973 0.0102 0.2569 0.2569 0.2401 0.9976 1.0009 0.9968 1.0010 1.0010
        Q-s-low E-s-low   Q-p-low E-p-low   Q-d-low E-d-low   Q-f-low E-f-low
:EPL003:  0.5101 -0.1731    0.0110 -0.2292    4.9564 -1.4829    0.0003 -1.3204
        Q-s-hi  E-s-hi    Q-p-hi  E-p-hi    Q-d-hi  E-d-hi    Q-f-hi  E-f-hi 
:EPH003:  0.0917  0.2708    0.7429  0.3241    0.0409  0.3256    0.0099  0.3303

                      VXX         VYY         VZZ       UP TO R
:VZZ003:            -2.11159    -2.11159     4.22319       2.500

:POS004: ATOM   -4 X,Y,Z = 0.50000 0.00000 0.72000  MULT= 1  ZZ= 51.000  Sb2       

       LMMAX 16
       LM=   0 0  1 0  2 0  2 2  3 0  3 2  4 0  4 2  4 4  5 0  5 2  5 4  6 0  6 2  6 4  6 6

:CHA004: TOTAL VALENCE CHARGE INSIDE SPHERE   4 =   6.3656    (RMT=  2.5000 )
:PCS004: PARTIAL CHARGES SPHERE =  4 S,P,D,F,PX,PY,PZ,D-Z2,D-X2Y2,D-XY,D-XZ,D-YZ 
:QTL004: 0.6018 0.7538 4.9973 0.0102 0.2569 0.2569 0.2401 0.9976 1.0009 0.9968 1.0010 1.0010
        Q-s-low E-s-low   Q-p-low E-p-low   Q-d-low E-d-low   Q-f-low E-f-low
:EPL004:  0.5101 -0.1731    0.0110 -0.2292    4.9564 -1.4829    0.0003 -1.3204
        Q-s-hi  E-s-hi    Q-p-hi  E-p-hi    Q-d-hi  E-d-hi    Q-f-hi  E-f-hi 
:EPH004:  0.0917  0.2708    0.7429  0.3241    0.0409  0.3256    0.0099  0.3303

                      VXX         VYY         VZZ       UP TO R
:VZZ004:            -2.11159    -2.11159     4.22319       2.500

:POS005: ATOM   -5 X,Y,Z = 0.00000 0.50000 0.70500  MULT= 1  ZZ= 25.000  Mn3       

       LMMAX 16
       LM=   0 0  1 0  2 0  2 2  3 0  3 2  4 0  4 2  4 4  5 0  5 2  5 4  6 0  6 2  6 4  6 6

:CHA005: TOTAL VALENCE CHARGE INSIDE SPHERE   5 =   3.7803    (RMT=  2.5000 )
:PCS005: PARTIAL CHARGES SPHERE =  5 S,P,D,F,PX,PY,PZ,D-Z2,D-X2Y2,D-XY,D-XZ,D-YZ 
:QTL005: 0.1340 3.1366 0.4983 0.0091 1.0451 1.0451 1.0464 0.0930 0.0749 0.1524 0.0890 0.0890
        Q-s-low E-s-low   Q-p-low E-p-low   Q-d-low E-d-low   Q-f-low E-f-low
:EPL005:  0.0195 -0.2260    3.0080 -2.7693    0.0108 -0.2352    0.0010 -0.4946
        Q-s-hi  E-s-hi    Q-p-hi  E-p-hi    Q-d-hi  E-d-hi    Q-f-hi  E-f-hi 
:EPH005:  0.1146  0.2193    0.1286  0.3117    0.4875  0.4228    0.0081  0.3381

                      VXX         VYY         VZZ       UP TO R
:VZZ005:            -0.38517    -0.38517     0.77035       2.500

:POS006: ATOM   -6 X,Y,Z = 0.50000 0.00000 0.29500  MULT= 1  ZZ= 25.000  Mn4       

       LMMAX 16
       LM=   0 0  1 0  2 0  2 2  3 0  3 2  4 0  4 2  4 4  5 0  5 2  5 4  6 0  6 2  6 4  6 6

:CHA006: TOTAL VALENCE CHARGE INSIDE SPHERE   6 =   3.7803    (RMT=  2.5000 )
:PCS006: PARTIAL CHARGES SPHERE =  6 S,P,D,F,PX,PY,PZ,D-Z2,D-X2Y2,D-XY,D-XZ,D-YZ 
:QTL006: 0.1340 3.1366 0.4983 0.0091 1.0451 1.0451 1.0464 0.0930 0.0749 0.1524 0.0890 0.0890
        Q-s-low E-s-low   Q-p-low E-p-low   Q-d-low E-d-low   Q-f-low E-f-low
:EPL006:  0.0195 -0.2260    3.0080 -2.7693    0.0108 -0.2352    0.0010 -0.4946
        Q-s-hi  E-s-hi    Q-p-hi  E-p-hi    Q-d-hi  E-d-hi    Q-f-hi  E-f-hi 
:EPH006:  0.1146  0.2193    0.1286  0.3117    0.4875  0.4228    0.0081  0.3381

                      VXX         VYY         VZZ       UP TO R
:VZZ006:            -0.38517    -0.38517     0.77034       2.500

:CHA  : TOTAL VALENCE CHARGE INSIDE UNIT CELL =      40.087704

:SUM  : SUM OF EIGENVALUES =         -45.752843544

:GAP (global)   :    0.0    Ry =     0.0   eV (metal)
:GAP (this spin):    0.0    Ry =     0.0   eV (metal)
         Bandranges (emin - emax) and occupancy:
:BAN00034:  34    0.326640    0.356330  1.00000000
:BAN00035:  35    0.330672    0.387808  1.00000000
:BAN00036:  36    0.349630    0.390756  1.00000000
:BAN00037:  37    0.367950    0.482316  1.00000000
:BAN00038:  38    0.377068    0.512463  1.00000000
:BAN00039:  39    0.397003    0.540407  1.00000000
:BAN00040:  40    0.402178    0.549019  1.00000000
:BAN00041:  41    0.424370    0.586635  0.94463266
:BAN00042:  42    0.433985    0.603629  0.62633923
:BAN00043:  43    0.539727    0.618430  0.21601875
:BAN00044:  44    0.543891    0.651016  0.12530505
:BAN00045:  45    0.636532    0.679653  0.00000000
:BAN00046:  46    0.642041    0.696517  0.00000000
:BAN00047:  47    0.669792    0.720234  0.00000000
:BAN00048:  48    0.676467    0.765310  0.00000000
:BAN00049:  49    0.708176    0.784104  0.00000000
        Energy to separate low and high energystates:    0.04389


:NOE  : NUMBER OF ELECTRONS          =   82.000

:FER  : F E R M I - ENERGY(TETRAH.M.)=   0.5670778691
:GMA  : POTENTIAL AND CHARGE CUT-OFF  12.00 Ry**.5

:POS001: ATOM   -1 X,Y,Z = 0.00000 0.00000 0.00000  MULT= 1  ZZ= 25.000  Mn1       

       LMMAX 16
       LM=   0 0  1 0  2 0  2 2  3 0  3 2  4 0  4 2  4 4  5 0  5 2  5 4  6 0  6 2  6 4  6 6

:CHA001: TOTAL VALENCE CHARGE INSIDE SPHERE   1 =   4.4868    (RMT=  2.5000 )
:PCS001: PARTIAL CHARGES SPHERE =  1 S,P,D,F,PX,PY,PZ,D-Z2,D-X2Y2,D-XY,D-XZ,D-YZ 
:QTL001: 0.1768 3.2103 1.0838 0.0128 1.0719 1.0719 1.0666 0.1539 0.1498 0.3589 0.2106 0.2106
        Q-s-low E-s-low   Q-p-low E-p-low   Q-d-low E-d-low   Q-f-low E-f-low
:EPL001:  0.0383 -0.2103    3.0199 -2.7720    0.0167 -0.2415    0.0014 -0.5968
        Q-s-hi  E-s-hi    Q-p-hi  E-p-hi    Q-d-hi  E-d-hi    Q-f-hi  E-f-hi 
:EPH001:  0.1385  0.2408    0.1905  0.3414    1.0672  0.4608    0.0114  0.3766

                      VXX         VYY         VZZ       UP TO R
:VZZ001:            -1.70873    -1.70873     3.41746       2.500

:POS002: ATOM   -2 X,Y,Z = 0.50000 0.50000 0.00000  MULT= 1  ZZ= 25.000  Mn2       

       LMMAX 16
       LM=   0 0  1 0  2 0  2 2  3 0  3 2  4 0  4 2  4 4  5 0  5 2  5 4  6 0  6 2  6 4  6 6

:CHA002: TOTAL VALENCE CHARGE INSIDE SPHERE   2 =   4.4868    (RMT=  2.5000 )
:PCS002: PARTIAL CHARGES SPHERE =  2 S,P,D,F,PX,PY,PZ,D-Z2,D-X2Y2,D-XY,D-XZ,D-YZ 
:QTL002: 0.1768 3.2103 1.0838 0.0128 1.0719 1.0719 1.0666 0.1539 0.1498 0.3589 0.2106 0.2106
        Q-s-low E-s-low   Q-p-low E-p-low   Q-d-low E-d-low   Q-f-low E-f-low
:EPL002:  0.0383 -0.2103    3.0199 -2.7720    0.0167 -0.2415    0.0014 -0.5968
        Q-s-hi  E-s-hi    Q-p-hi  E-p-hi    Q-d-hi  E-d-hi    Q-f-hi  E-f-hi 
:EPH002:  0.1385  0.2408    0.1905  0.3414    1.0672  0.4608    0.0114  0.3766

                      VXX         VYY         VZZ       UP TO R
:VZZ002:            -1.70873    -1.70873     3.41746       2.500

:POS003: ATOM   -3 X,Y,Z = 0.00000 0.50000 0.28000  MULT= 1  ZZ= 51.000  Sb1       

       LMMAX 16
       LM=   0 0  1 0  2 0  2 2  3 0  3 2  4 0  4 2  4 4  5 0  5 2  5 4  6 0  6 2  6 4  6 6

:CHA003: TOTAL VALENCE CHARGE INSIDE SPHERE   3 =   6.3936    (RMT=  2.5000 )
:PCS003: PARTIAL CHARGES SPHERE =  3 S,P,D,F,PX,PY,PZ,D-Z2,D-X2Y2,D-XY,D-XZ,D-YZ 
:QTL003: 0.6062 0.7653 5.0086 0.0113 0.2511 0.2511 0.2631 1.0035 0.9965 1.0086 1.0000 1.0000
        Q-s-low E-s-low   Q-p-low E-p-low   Q-d-low E-d-low   Q-f-low E-f-low
:EPL003:  0.5253 -0.1645    0.0083 -0.2411    4.9566 -1.4828    0.0003 -1.3052
        Q-s-hi  E-s-hi    Q-p-hi  E-p-hi    Q-d-hi  E-d-hi    Q-f-hi  E-f-hi 
:EPH003:  0.0809  0.3243    0.7570  0.3294    0.0520  0.3920    0.0110  0.4041

                      VXX         VYY         VZZ       UP TO R
:VZZ003:             1.37861     1.37861    -2.75722       2.500

:POS004: ATOM   -4 X,Y,Z = 0.50000 0.00000 0.72000  MULT= 1  ZZ= 51.000  Sb2       

       LMMAX 16
       LM=   0 0  1 0  2 0  2 2  3 0  3 2  4 0  4 2  4 4  5 0  5 2  5 4  6 0  6 2  6 4  6 6

:CHA004: TOTAL VALENCE CHARGE INSIDE SPHERE   4 =   6.3936    (RMT=  2.5000 )
:PCS004: PARTIAL CHARGES SPHERE =  4 S,P,D,F,PX,PY,PZ,D-Z2,D-X2Y2,D-XY,D-XZ,D-YZ 
:QTL004: 0.6062 0.7653 5.0086 0.0113 0.2511 0.2511 0.2631 1.0035 0.9965 1.0086 1.0000 1.0000
        Q-s-low E-s-low   Q-p-low E-p-low   Q-d-low E-d-low   Q-f-low E-f-low
:EPL004:  0.5253 -0.1645    0.0083 -0.2411    4.9566 -1.4828    0.0003 -1.3052
        Q-s-hi  E-s-hi    Q-p-hi  E-p-hi    Q-d-hi  E-d-hi    Q-f-hi  E-f-hi 
:EPH004:  0.0809  0.3243    0.7570  0.3294    0.0520  0.3920    0.0110  0.4041

                      VXX         VYY         VZZ       UP TO R
:VZZ004:             1.37861     1.37861    -2.75722       2.500

:POS005: ATOM   -5 X,Y,Z = 0.00000 0.50000 0.70500  MULT= 1  ZZ= 25.000  Mn3       

       LMMAX 16
       LM=   0 0  1 0  2 0  2 2  3 0  3 2  4 0  4 2  4 4  5 0  5 2  5 4  6 0  6 2  6 4  6 6

:CHA005: TOTAL VALENCE CHARGE INSIDE SPHERE   5 =   7.9151    (RMT=  2.5000 )
:PCS005: PARTIAL CHARGES SPHERE =  5 S,P,D,F,PX,PY,PZ,D-Z2,D-X2Y2,D-XY,D-XZ,D-YZ 
:QTL005: 0.2252 3.2027 4.4771 0.0085 1.0637 1.0637 1.0752 0.8858 0.8900 0.9213 0.8900 0.8900
        Q-s-low E-s-low   Q-p-low E-p-low   Q-d-low E-d-low   Q-f-low E-f-low
:EPL005:  0.0265 -0.2145    3.0124 -3.1320    0.0209 -0.1913    0.0010 -0.4887
        Q-s-hi  E-s-hi    Q-p-hi  E-p-hi    Q-d-hi  E-d-hi    Q-f-hi  E-f-hi 
:EPH005:  0.1987  0.2713    0.1903  0.3744    4.4563  0.3413    0.0075  0.4074

                      VXX         VYY         VZZ       UP TO R
:VZZ005:             0.02976     0.02976    -0.05952       2.500

:POS006: ATOM   -6 X,Y,Z = 0.50000 0.00000 0.29500  MULT= 1  ZZ= 25.000  Mn4       

       LMMAX 16
       LM=   0 0  1 0  2 0  2 2  3 0  3 2  4 0  4 2  4 4  5 0  5 2  5 4  6 0  6 2  6 4  6 6

:CHA006: TOTAL VALENCE CHARGE INSIDE SPHERE   6 =   7.9151    (RMT=  2.5000 )
:PCS006: PARTIAL CHARGES SPHERE =  6 S,P,D,F,PX,PY,PZ,D-Z2,D-X2Y2,D-XY,D-XZ,D-YZ 
:QTL006: 0.2252 3.2027 4.4771 0.0085 1.0637 1.0637 1.0752 0.8858 0.8900 0.9213 0.8900 0.8900
        Q-s-low E-s-low   Q-p-low E-p-low   Q-d-low E-d-low   Q-f-low E-f-low
[...]
       LM=   0 0  1 0  2 0  2 2  3 0  3 2  4 0  4 2  4 4  5 0  5 2  5 4  6 0  6 2  6 4  6 6

:CHA004: TOTAL VALENCE CHARGE INSIDE SPHERE   4 =   6.4527    (RMT=  2.5000 )
:PCS004: PARTIAL CHARGES SPHERE =  4 S,P,D,F,PX,PY,PZ,D-Z2,D-X2Y2,D-XY,D-XZ,D-YZ 
:QTL004: 0.6184 0.8114 5.0098 0.0109 0.2650 0.2650 0.2815 1.0042 0.9970 1.0094 0.9996 0.9996
        Q-s-low E-s-low   Q-p-low E-p-low   Q-d-low E-d-low   Q-f-low E-f-low
:EPL004:  0.5470 -0.1960    0.0050 -0.3062    4.9589 -1.5625    0.0002 -1.3767
        Q-s-hi  E-s-hi    Q-p-hi  E-p-hi    Q-d-hi  E-d-hi    Q-f-hi  E-f-hi 
:EPH004:  0.0714  0.3220    0.8065  0.3065    0.0509  0.3824    0.0107  0.3879

                      VXX         VYY         VZZ       UP TO R
:VZZ004:             1.90410     1.90410    -3.80820       2.500

:POS005: ATOM   -5 X,Y,Z = 0.00000 0.50000 0.70500  MULT= 1  ZZ= 25.000  Mn3       

       LMMAX 16
       LM=   0 0  1 0  2 0  2 2  3 0  3 2  4 0  4 2  4 4  5 0  5 2  5 4  6 0  6 2  6 4  6 6

:CHA005: TOTAL VALENCE CHARGE INSIDE SPHERE   5 =   7.9138    (RMT=  2.5000 )
:PCS005: PARTIAL CHARGES SPHERE =  5 S,P,D,F,PX,PY,PZ,D-Z2,D-X2Y2,D-XY,D-XZ,D-YZ 
:QTL005: 0.2290 3.2003 4.4747 0.0083 1.0635 1.0635 1.0733 0.8850 0.8901 0.9188 0.8905 0.8905
        Q-s-low E-s-low   Q-p-low E-p-low   Q-d-low E-d-low   Q-f-low E-f-low
:EPL005:  0.0261 -0.2449    3.0126 -3.1451    0.0204 -0.2220    0.0011 -0.5019
        Q-s-hi  E-s-hi    Q-p-hi  E-p-hi    Q-d-hi  E-d-hi    Q-f-hi  E-f-hi 
:EPH005:  0.2029  0.2647    0.1877  0.3603    4.4543  0.3283    0.0073  0.3884

                      VXX         VYY         VZZ       UP TO R
:VZZ005:             0.05250     0.05250    -0.10500       2.500

:POS006: ATOM   -6 X,Y,Z = 0.50000 0.00000 0.29500  MULT= 1  ZZ= 25.000  Mn4       

       LMMAX 16
       LM=   0 0  1 0  2 0  2 2  3 0  3 2  4 0  4 2  4 4  5 0  5 2  5 4  6 0  6 2  6 4  6 6

:CHA006: TOTAL VALENCE CHARGE INSIDE SPHERE   6 =   7.9138    (RMT=  2.5000 )
:PCS006: PARTIAL CHARGES SPHERE =  6 S,P,D,F,PX,PY,PZ,D-Z2,D-X2Y2,D-XY,D-XZ,D-YZ 
:QTL006: 0.2290 3.2003 4.4747 0.0083 1.0635 1.0635 1.0733 0.8850 0.8901 0.9188 0.8905 0.8905
        Q-s-low E-s-low   Q-p-low E-p-low   Q-d-low E-d-low   Q-f-low E-f-low
:EPL006:  0.0261 -0.2449    3.0126 -3.1451    0.0204 -0.2220    0.0011 -0.5019
        Q-s-hi  E-s-hi    Q-p-hi  E-p-hi    Q-d-hi  E-d-hi    Q-f-hi  E-f-hi 
:EPH006:  0.2029  0.2647    0.1877  0.3603    4.4543  0.3283    0.0073  0.3884

                      VXX         VYY         VZZ       UP TO R
:VZZ006:             0.05250     0.05250    -0.10500       2.500

:CHA  : TOTAL VALENCE CHARGE INSIDE UNIT CELL =      41.781153

:SUM  : SUM OF EIGENVALUES =         -45.966586330


        1.ATOM      Mn1                   5 CORE STATES
       CORE-FORCE in mRy/a.u. = |F|      Fx             Fy             Fz
:FCO001:   1.ATOM      0.000003762654      0.000000000000      0.000000000000     -0.000003762654

:1S 001: 1S                -471.422923976 Ry
:2S 001: 2S                 -53.668077700 Ry
:2PP001: 2P*                -45.806075393 Ry
:2P 001: 2P                 -45.040630209 Ry
:3S 001: 3S                  -5.413899126 Ry

        2.ATOM      Mn2                   5 CORE STATES
       CORE-FORCE in mRy/a.u. = |F|      Fx             Fy             Fz
:FCO002:   2.ATOM      0.000003895149      0.000000000000      0.000000000000     -0.000003895149

:1S 002: 1S                -471.422923997 Ry
:2S 002: 2S                 -53.668077711 Ry
:2PP002: 2P*                -45.806075405 Ry
:2P 002: 2P                 -45.040630221 Ry
:3S 002: 3S                  -5.413899131 Ry

        3.ATOM      Sb1                  12 CORE STATES
       CORE-FORCE in mRy/a.u. = |F|      Fx             Fy             Fz
:FCO003:   3.ATOM    111.798328378680      0.000000000000      0.000000000000   -111.798328378680

:1S 003: 1S               -2225.021033833 Ry
:2S 003: 2S                -337.716965782 Ry
:2PP003: 2P*               -315.878575643 Ry
:2P 003: 2P                -297.370193887 Ry
:3S 003: 3S                 -65.489573035 Ry
:3PP003: 3P*                -56.565808659 Ry
:3P 003: 3P                 -53.150487811 Ry
:3DD003: 3D*                -37.399647523 Ry
:3D 003: 3D                 -36.689885816 Ry
:4S 003: 4S                 -10.029258882 Ry
:4PP003: 4P*                 -7.012607851 Ry
:4P 003: 4P                  -6.381692676 Ry

        4.ATOM      Sb2                  12 CORE STATES
       CORE-FORCE in mRy/a.u. = |F|      Fx             Fy             Fz
:FCO004:   4.ATOM    111.798341303996      0.000000000000      0.000000000000    111.798341303996

:1S 004: 1S               -2225.021033871 Ry
:2S 004: 2S                -337.716965820 Ry
:2PP004: 2P*               -315.878575681 Ry
:2P 004: 2P                -297.370193925 Ry
:3S 004: 3S                 -65.489573070 Ry
:3PP004: 3P*                -56.565808694 Ry
:3P 004: 3P                 -53.150487846 Ry
:3DD004: 3D*                -37.399647558 Ry
:3D 004: 3D                 -36.689885852 Ry
:4S 004: 4S                 -10.029258911 Ry
:4PP004: 4P*                 -7.012607879 Ry
:4P 004: 4P                  -6.381692703 Ry

        5.ATOM      Mn3                   5 CORE STATES
       CORE-FORCE in mRy/a.u. = |F|      Fx             Fy             Fz
:FCO005:   5.ATOM    256.686578097405      0.000000000000      0.000000000000   -256.686578097405

:1S 005: 1S                -471.452563388 Ry
:2S 005: 2S                 -53.566614803 Ry
:2PP005: 2P*                -45.737364962 Ry
:2P 005: 2P                 -44.969255620 Ry
:3S 005: 3S                  -5.126343566 Ry

        6.ATOM      Mn4                   5 CORE STATES
       CORE-FORCE in mRy/a.u. = |F|      Fx             Fy             Fz
:FCO006:   6.ATOM    256.686580049052      0.000000000000      0.000000000000    256.686580049052

:1S 006: 1S                -471.452563397 Ry
:2S 006: 2S                 -53.566614808 Ry
:2PP006: 2P*                -45.737364968 Ry
:2P 006: 2P                 -44.969255626 Ry
:3S 006: 3S                  -5.126343569 Ry

        1.ATOM      Mn1                   5 CORE STATES
       CORE-FORCE in mRy/a.u. = |F|      Fx             Fy             Fz
:FCO001:   1.ATOM      0.000003817504      0.000000000000      0.000000000000     -0.000003817504

:1S 001: 1S                -471.423776978 Ry
:2S 001: 2S                 -53.543792721 Ry
:2PP001: 2P*                -45.713336589 Ry
:2P 001: 2P                 -44.945323704 Ry
:3S 001: 3S                  -5.106470573 Ry

        2.ATOM      Mn2                   5 CORE STATES
       CORE-FORCE in mRy/a.u. = |F|      Fx             Fy             Fz
:FCO002:   2.ATOM      0.000003943238      0.000000000000      0.000000000000     -0.000003943238

:1S 002: 1S                -471.423776998 Ry
:2S 002: 2S                 -53.543792732 Ry
:2PP002: 2P*                -45.713336601 Ry
:2P 002: 2P                 -44.945323717 Ry
:3S 002: 3S                  -5.106470580 Ry

        3.ATOM      Sb1                  12 CORE STATES
       CORE-FORCE in mRy/a.u. = |F|      Fx             Fy             Fz
:FCO003:   3.ATOM    137.979057781267      0.000000000000      0.000000000000   -137.979057781267

:1S 003: 1S               -2225.021132492 Ry
:2S 003: 2S                -337.717063897 Ry
:2PP003: 2P*               -315.878683125 Ry
:2P 003: 2P                -297.370300731 Ry
:3S 003: 3S                 -65.489683719 Ry
:3PP003: 3P*                -56.565930185 Ry
:3P 003: 3P                 -53.150609567 Ry
:3DD003: 3D*                -37.399778804 Ry
:3D 003: 3D                 -36.690017785 Ry
:4S 003: 4S                 -10.029585002 Ry
:4PP003: 4P*                 -7.012940750 Ry
:4P 003: 4P                  -6.382026759 Ry

        4.ATOM      Sb2                  12 CORE STATES
       CORE-FORCE in mRy/a.u. = |F|      Fx             Fy             Fz
:FCO004:   4.ATOM    137.979070486860      0.000000000000      0.000000000000    137.979070486860

:1S 004: 1S               -2225.021132529 Ry
:2S 004: 2S                -337.717063935 Ry
:2PP004: 2P*               -315.878683163 Ry
:2P 004: 2P                -297.370300769 Ry
:3S 004: 3S                 -65.489683754 Ry
:3PP004: 3P*                -56.565930220 Ry
:3P 004: 3P                 -53.150609602 Ry
:3DD004: 3D*                -37.399778840 Ry
:3D 004: 3D                 -36.690017820 Ry
:4S 004: 4S                 -10.029585031 Ry
:4PP004: 4P*                 -7.012940778 Ry
:4P 004: 4P                  -6.382026786 Ry

        5.ATOM      Mn3                   5 CORE STATES
       CORE-FORCE in mRy/a.u. = |F|      Fx             Fy             Fz
:FCO005:   5.ATOM    252.837704979992      0.000000000000      0.000000000000   -252.837704979992

:1S 005: 1S                -471.452050184 Ry
:2S 005: 2S                 -53.701377670 Ry
:2PP005: 2P*                -45.838089147 Ry
:2P 005: 2P                 -45.072753595 Ry
:3S 005: 3S                  -5.460761769 Ry

        6.ATOM      Mn4                   5 CORE STATES
       CORE-FORCE in mRy/a.u. = |F|      Fx             Fy             Fz
:FCO006:   6.ATOM    252.837706877988      0.000000000000      0.000000000000    252.837706877988

:1S 006: 1S                -471.452050193 Ry
:2S 006: 2S                 -53.701377676 Ry
:2PP006: 2P*                -45.838089153 Ry
:2P 006: 2P                 -45.072753601 Ry
:3S 006: 3S                  -5.460761773 Ry
:CINT001 Core Integral Atom   1 Up    5.999555 Dn   5.999489 Total  11.999043
:CINT002 Core Integral Atom   2 Up    5.999555 Dn   5.999489 Total  11.999043
:CINT003 Core Integral Atom   3 Up   17.999322 Dn  17.999321 Total  35.998642
:CINT004 Core Integral Atom   4 Up   17.999322 Dn  17.999321 Total  35.998642
:CINT005 Core Integral Atom   5 Up    5.999505 Dn   5.999569 Total  11.999073
:CINT006 Core Integral Atom   6 Up    5.999505 Dn   5.999569 Total  11.999073

       DENSITY AT NUCLEUS
        JATOM        VALENCE       SEMI-CORE          CORE           TOTAL
:RTO001:   1        4.946291        0.000000    13330.121380    13335.067671
:RTO002:   2        4.946291        0.000000    13330.121380    13335.067671
:RTO003:   3       92.166236        0.000000   229674.477476   229766.643711
:RTO004:   4       92.166238        0.000000   229674.477476   229766.643714
:RTO005:   5        5.016924        0.000000    13330.098672    13335.115596
:RTO006:   6        5.016924        0.000000    13330.098672    13335.115597

       HYPERFINE FIELDS FOR THOMSON RADIUS
:HFF001:          286.654           0.000        -466.511        -179.857 (KGAUSS)
:HFF002:          286.654           0.000        -466.511        -179.857 (KGAUSS)
:HFF003:         -348.211           0.000          -1.480        -349.692 (KGAUSS)
:HFF004:         -348.211           0.000          -1.480        -349.692 (KGAUSS)
:HFF005:         -650.538           0.000         511.566        -138.972 (KGAUSS)
:HFF006:         -650.538           0.000         511.566        -138.972 (KGAUSS)
     
       CHARGES OF NEW CHARGE DENSITY
:NTO   : INTERSTITIAL     UP =     4.106248 DN =     4.303300 TOT =     8.409548
:NPC   : PW Pseudocharge  UP =     7.747069 DN =     8.192531 TOT =    15.939600
:NTO001: CHARGE SPHERE  1 UP =    13.703002 DN =    10.371888 TOT =    24.074890
:NTO002: CHARGE SPHERE  2 UP =    13.703002 DN =    10.371888 TOT =    24.074890
:NTO003: CHARGE SPHERE  3 UP =    24.415512 DN =    24.452065 TOT =    48.867576
:NTO004: CHARGE SPHERE  4 UP =    24.415512 DN =    24.452065 TOT =    48.867576
:NTO005: CHARGE SPHERE  5 UP =     9.936157 DN =    13.913342 TOT =    23.849499
:NTO006: CHARGE SPHERE  6 UP =     9.936157 DN =    13.913342 TOT =    23.849499

:NEC01: NUCLEAR AND ELECTRONIC CHARGE    202.00000   201.99348
     
       CHARGES OF OLD CHARGE DENSITY
:OTO   : INTERSTITIAL     UP =     4.077175 DN =     4.209206 TOT =     8.286381
:OPC   : PW Pseudocharge  UP =     8.271615 DN =     8.598573 TOT =    16.870188
:OTO001: CHARGE SPHERE  1 UP =    14.014498 DN =    10.068355 TOT =    24.082853
:OTO002: CHARGE SPHERE  2 UP =    14.014498 DN =    10.068355 TOT =    24.082853
:OTO003: CHARGE SPHERE  3 UP =    24.445187 DN =    24.466031 TOT =    48.911218
:OTO004: CHARGE SPHERE  4 UP =    24.445187 DN =    24.466031 TOT =    48.911218
:OTO005: CHARGE SPHERE  5 UP =     9.770978 DN =    14.091761 TOT =    23.862739
:OTO006: CHARGE SPHERE  6 UP =     9.770978 DN =    14.091761 TOT =    23.862739

:NEC02: NUCLEAR AND ELECTRONIC CHARGE    202.00000   202.00000
     
       CONVERGENCE TEST
:DTO001: DIFFERENCE SPHERE  1 UP =  0.3157724 DN =  0.2961960 TOT =  0.6119684
:DTO002: DIFFERENCE SPHERE  2 UP =  0.3157724 DN =  0.2961960 TOT =  0.6119684
:DTO003: DIFFERENCE SPHERE  3 UP =  0.0242247 DN =  0.0212086 TOT =  0.0454333
:DTO004: DIFFERENCE SPHERE  4 UP =  0.0242247 DN =  0.0212086 TOT =  0.0454333
:DTO005: DIFFERENCE SPHERE  5 UP =  0.1812496 DN =  0.1894034 TOT =  0.3706529
:DTO006: DIFFERENCE SPHERE  6 UP =  0.1812496 DN =  0.1894034 TOT =  0.3706529

:DIS  :  CHARGE DISTANCE       ( 0.3157724 for atom    2 spin 1)      0.6853698
 PW Mixed is          661
 
******************************************************
* MULTISECANT MIXING VER9 RELEASE 10.4.0              *
* Slow Mode, cautious                                *
* Fixed density scale                                *
* Regularization       1.000E-04                     *
* Step Trust Radius    0.75000                       *
* Trust Upper Limit    2.000E+00                     *
* Max Number of Memory Steps   12                    *
******************************************************
 
:PWTMP   3.4441E+02  7.5000E+02  7.3711E+02
:PLANE:  PW TOTAL      3.6389 DISTAN   2.64E-01  7.24E+00 %
:CHARG:  CLM/ATOM    134.0137 DISTAN   1.21E-01  9.05E-02 %
 :WARNING:  ERROR in reading files, restarted
 
Step History
        DMIX         DMIXT        Red     Pred      Trust     Lambda    MagRel    MagAbs     Beta
  1   2.5000E-02   3.5000E-02 -1.00E+00  1.00E+00 -1.00E+01  1.00E+00  3.50E-02  3.50E-02  1.00E+00
:INFO :  Note, Pratt in use
:TRUST:  Step 3.75E-02  Charge 7.50E-02 (e) CTO  2.50E-01 (e) PW  3.50E-01 (e)
:DIRM :  MEMORY  0/12 SCALE   1.000
:MIX  :   PRATT  REGULARIZATION:  1.00E-04 GREED: 0.02500                  
     
       CHARGES OF MIXED CHARGE DENSITY
:CTO   : INTERSTITIAL     UP =     4.077981 DN =     4.211642 TOT =     8.289623
:CPC   : PW Pseudocharge  UP =     8.258651 DN =     8.588581 TOT =    16.847232
:CTO001: CHARGE SPHERE  1 UP =    14.006710 DN =    10.075944 TOT =    24.082654
:CTO002: CHARGE SPHERE  2 UP =    14.006710 DN =    10.075944 TOT =    24.082654
:CTO003: CHARGE SPHERE  3 UP =    24.444445 DN =    24.465681 TOT =    48.910127
:CTO004: CHARGE SPHERE  4 UP =    24.444445 DN =    24.465681 TOT =    48.910126
:CTO005: CHARGE SPHERE  5 UP =     9.775108 DN =    14.087300 TOT =    23.862408
:CTO006: CHARGE SPHERE  6 UP =     9.775108 DN =    14.087300 TOT =    23.862408

       SPIN MAGNETIC MOMENTS OF MIXED CHARGE DENSITY
:MMINT:  MAGNETIC MOMENT IN INTERSTITIAL  =   -0.13366
:MMI001: MAGNETIC MOMENT IN SPHERE   1    =    3.93077
:MMI002: MAGNETIC MOMENT IN SPHERE   2    =    3.93077
:MMI003: MAGNETIC MOMENT IN SPHERE   3    =   -0.02124
:MMI004: MAGNETIC MOMENT IN SPHERE   4    =   -0.02124
:MMI005: MAGNETIC MOMENT IN SPHERE   5    =   -4.31219
:MMI006: MAGNETIC MOMENT IN SPHERE   6    =   -4.31219
:MMTOT:  SPIN MAGNETIC MOMENT IN CELL     =   -0.93899

:NEC03: NUCLEAR AND ELECTRONIC CHARGE    202.00000   202.00000

PW CHANGE     H    K    L             Current                    Change               Residue
:PUP001:      0    0    0  1.67365600E-02 0.00000000E+00 -1.649E-05  0.000E+00 -6.597E-04  0.000E+00
:PUP002:      0    0   -1  2.02228856E-03-1.09660622E-11 -1.108E-05 -2.629E-13 -4.432E-04 -1.051E-11
:PUP003:      0    0    1  2.02228856E-03 1.09660622E-11 -1.108E-05  2.629E-13 -4.432E-04  1.051E-11
:PUP004:     -1    0    0 -2.18573134E-11 0.00000000E+00 -5.514E-13  0.000E+00 -2.206E-11  0.000E+00
:PUP005:      0   -1    0  2.85745084E-11 0.00000000E+00  7.685E-13  0.000E+00  3.074E-11  0.000E+00
:PUP006:     -1    0   -1  5.90932397E-12 5.09899282E-03  1.609E-13 -5.438E-06  6.437E-12 -2.175E-04
:PUP007:     -1    0    1  5.90932397E-12-5.09899282E-03  1.609E-13  5.438E-06  6.437E-12  2.175E-04
:PUP008:      0   -1   -1 -1.78627357E-12-5.09899282E-03 -3.827E-14  5.438E-06 -1.531E-12  2.175E-04
:PUP009:      0   -1    1 -1.78627357E-12 5.09899282E-03 -3.827E-14 -5.438E-06 -1.531E-12 -2.175E-04
:PUP010:      0    0   -2 -1.66995137E-03 1.88237975E-12 -4.297E-06  6.008E-14 -1.719E-04  2.403E-12
:PUP011:      0    0    2 -1.66995137E-03-1.88237975E-12 -4.297E-06 -6.008E-14 -1.719E-04 -2.403E-12
:PUP012:     -1   -1    0 -5.34690797E-03 0.00000000E+00 -6.010E-06  0.000E+00 -2.404E-04  0.000E+00
  
:PDN001:      0    0    0  1.73654918E-02 0.00000000E+00 -1.025E-05  0.000E+00 -4.101E-04  0.000E+00
:PDN002:      0    0   -1  1.17343188E-04-1.58391059E-11  5.776E-06 -3.763E-13  2.310E-04 -1.505E-11
:PDN003:      0    0    1  1.17343188E-04 1.58391059E-11  5.776E-06  3.763E-13  2.310E-04  1.505E-11
:PDN004:     -1    0    0 -3.28173915E-11 0.00000000E+00 -6.984E-13  0.000E+00 -2.794E-11  0.000E+00
:PDN005:      0   -1    0  8.31885477E-12 0.00000000E+00  3.176E-13  0.000E+00  1.271E-11  0.000E+00
:PDN006:     -1    0   -1 -3.91886617E-12 3.13652245E-03 -6.122E-14  6.227E-06 -2.449E-12  2.491E-04
:PDN007:     -1    0    1 -3.91886617E-12-3.13652245E-03 -6.122E-14 -6.227E-06 -2.449E-12 -2.491E-04
:PDN008:      0   -1   -1 -1.22870456E-11-3.13652245E-03 -2.536E-13 -6.227E-06 -1.015E-11 -2.491E-04
:PDN009:      0   -1    1 -1.22870456E-11 3.13652245E-03 -2.536E-13  6.227E-06 -1.015E-11  2.491E-04
:PDN010:      0    0   -2 -3.32725827E-03 3.60282443E-12  6.515E-06  1.043E-13  2.606E-04  4.170E-12
:PDN011:      0    0    2 -3.32725827E-03-3.60282443E-12  6.515E-06 -1.043E-13  2.606E-04 -4.170E-12
:PDN012:     -1   -1    0 -1.13308179E-02 0.00000000E+00  1.840E-05  0.000E+00  7.359E-04  0.000E+00

:ENE  : *WARNING** TOTAL ENERGY IN Ry =       -35203.68240811

       TOTAL FORCE IN mRy/a.u. = |F|     Fx             Fy             Fz     with/without FOR in case.in2
:FOR001:   1.ATOM          0.000          0.000          0.000          0.000 partial forces
:FOR002:   2.ATOM          0.000          0.000          0.000          0.000 partial forces
:FOR003:   3.ATOM         82.569          0.000          0.000        -82.569 partial forces
:FOR004:   4.ATOM         82.569          0.000          0.000         82.569 partial forces
:FOR005:   5.ATOM        183.291          0.000          0.000        183.291 partial forces
:FOR006:   6.ATOM        183.291          0.000          0.000       -183.291 partial forces
       TOTAL FORCE WITH RESPECT TO GLOBAL CARTESIAN COORDINATES:
:FCA001:   1.ATOM                         0.000          0.000          0.000 partial forces
:FCA002:   2.ATOM                         0.000          0.000          0.000 partial forces
:FCA003:   3.ATOM                         0.000          0.000        -82.569 partial forces
:FCA004:   4.ATOM                         0.000          0.000         82.569 partial forces
:FCA005:   5.ATOM                         0.000          0.000        183.291 partial forces
:FCA006:   6.ATOM                         0.000          0.000       -183.291 partial forces
       TOTAL FORCE WITH RESPECT TO THE GLOBAL COORDINATE SYSTEM:
:FGL001:   1.ATOM                 0.000000000     0.000000000     0.000003114 partial forces
:FGL002:   2.ATOM                 0.000000000     0.000000000     0.000003238 partial forces
:FGL003:   3.ATOM                 0.000000000     0.000000000   -82.568652618 partial forces
:FGL004:   4.ATOM                 0.000000000     0.000000000    82.568651103 partial forces
:FGL005:   5.ATOM                 0.000000000     0.000000000   183.291431527 partial forces
:FGL006:   6.ATOM                 0.000000000     0.000000000  -183.291433312 partial forces
